<?xml version="1.0"?>
<VTKFile type="UnstructuredGrid"  version="0.1"  >
<UnstructuredGrid>
<Piece  NumberOfPoints="1089" NumberOfCells="2048">
<Points>
<DataArray  type="Float64"  NumberOfComponents="3"  format="ascii">0 0 0  0.03125 0 0  0.0625 0 0  0.09375 0 0  0.125 0 0  0.15625 0 0  0.1875 0 0  0.21875 0 0  0.25 0 0  0.28125 0 0  0.3125 0 0  0.34375 0 0  0.375 0 0  0.40625 0 0  0.4375 0 0  0.46875 0 0  0.5 0 0  0.53125 0 0  0.5625 0 0  0.59375 0 0  0.625 0 0  0.65625 0 0  0.6875 0 0  0.71875 0 0  0.75 0 0  0.78125 0 0  0.8125 0 0  0.84375 0 0  0.875 0 0  0.90625 0 0  0.9375 0 0  0.96875 0 0  1 0 0  0 0.03125 0  0.03125 0.03125 0  0.0625 0.03125 0  0.09375 0.03125 0  0.125 0.03125 0  0.15625 0.03125 0  0.1875 0.03125 0  0.21875 0.03125 0  0.25 0.03125 0  0.28125 0.03125 0  0.3125 0.03125 0  0.34375 0.03125 0  0.375 0.03125 0  0.40625 0.03125 0  0.4375 0.03125 0  0.46875 0.03125 0  0.5 0.03125 0  0.53125 0.03125 0  0.5625 0.03125 0  0.59375 0.03125 0  0.625 0.03125 0  0.65625 0.03125 0  0.6875 0.03125 0  0.71875 0.03125 0  0.75 0.03125 0  0.78125 0.03125 0  0.8125 0.03125 0  0.84375 0.03125 0  0.875 0.03125 0  0.90625 0.03125 0  0.9375 0.03125 0  0.96875 0.03125 0  1 0.03125 0  0 0.0625 0  0.03125 0.0625 0  0.0625 0.0625 0  0.09375 0.0625 0  0.125 0.0625 0  0.15625 0.0625 0  0.1875 0.0625 0  0.21875 0.0625 0  0.25 0.0625 0  0.28125 0.0625 0  0.3125 0.0625 0  0.34375 0.0625 0  0.375 0.0625 0  0.40625 0.0625 0  0.4375 0.0625 0  0.46875 0.0625 0  0.5 0.0625 0  0.53125 0.0625 0  0.5625 0.0625 0  0.59375 0.0625 0  0.625 0.0625 0  0.65625 0.0625 0  0.6875 0.0625 0  0.71875 0.0625 0  0.75 0.0625 0  0.78125 0.0625 0  0.8125 0.0625 0  0.84375 0.0625 0  0.875 0.0625 0  0.90625 0.0625 0  0.9375 0.0625 0  0.96875 0.0625 0  1 0.0625 0  0 0.09375 0  0.03125 0.09375 0  0.0625 0.09375 0  0.09375 0.09375 0  0.125 0.09375 0  0.15625 0.09375 0  0.1875 0.09375 0  0.21875 0.09375 0  0.25 0.09375 0  0.28125 0.09375 0  0.3125 0.09375 0  0.34375 0.09375 0  0.375 0.09375 0  0.40625 0.09375 0  0.4375 0.09375 0  0.46875 0.09375 0  0.5 0.09375 0  0.53125 0.09375 0  0.5625 0.09375 0  0.59375 0.09375 0  0.625 0.09375 0  0.65625 0.09375 0  0.6875 0.09375 0  0.71875 0.09375 0  0.75 0.09375 0  0.78125 0.09375 0  0.8125 0.09375 0  0.84375 0.09375 0  0.875 0.09375 0  0.90625 0.09375 0  0.9375 0.09375 0  0.96875 0.09375 0  1 0.09375 0  0 0.125 0  0.03125 0.125 0  0.0625 0.125 0  0.09375 0.125 0  0.125 0.125 0  0.15625 0.125 0  0.1875 0.125 0  0.21875 0.125 0  0.25 0.125 0  0.28125 0.125 0  0.3125 0.125 0  0.34375 0.125 0  0.375 0.125 0  0.40625 0.125 0  0.4375 0.125 0  0.46875 0.125 0  0.5 0.125 0  0.53125 0.125 0  0.5625 0.125 0  0.59375 0.125 0  0.625 0.125 0  0.65625 0.125 0  0.6875 0.125 0  0.71875 0.125 0  0.75 0.125 0  0.78125 0.125 0  0.8125 0.125 0  0.84375 0.125 0  0.875 0.125 0  0.90625 0.125 0  0.9375 0.125 0  0.96875 0.125 0  1 0.125 0  0 0.15625 0  0.03125 0.15625 0  0.0625 0.15625 0  0.09375 0.15625 0  0.125 0.15625 0  0.15625 0.15625 0  0.1875 0.15625 0  0.21875 0.15625 0  0.25 0.15625 0  0.28125 0.15625 0  0.3125 0.15625 0  0.34375 0.15625 0  0.375 0.15625 0  0.40625 0.15625 0  0.4375 0.15625 0  0.46875 0.15625 0  0.5 0.15625 0  0.53125 0.15625 0  0.5625 0.15625 0  0.59375 0.15625 0  0.625 0.15625 0  0.65625 0.15625 0  0.6875 0.15625 0  0.71875 0.15625 0  0.75 0.15625 0  0.78125 0.15625 0  0.8125 0.15625 0  0.84375 0.15625 0  0.875 0.15625 0  0.90625 0.15625 0  0.9375 0.15625 0  0.96875 0.15625 0  1 0.15625 0  0 0.1875 0  0.03125 0.1875 0  0.0625 0.1875 0  0.09375 0.1875 0  0.125 0.1875 0  0.15625 0.1875 0  0.1875 0.1875 0  0.21875 0.1875 0  0.25 0.1875 0  0.28125 0.1875 0  0.3125 0.1875 0  0.34375 0.1875 0  0.375 0.1875 0  0.40625 0.1875 0  0.4375 0.1875 0  0.46875 0.1875 0  0.5 0.1875 0  0.53125 0.1875 0  0.5625 0.1875 0  0.59375 0.1875 0  0.625 0.1875 0  0.65625 0.1875 0  0.6875 0.1875 0  0.71875 0.1875 0  0.75 0.1875 0  0.78125 0.1875 0  0.8125 0.1875 0  0.84375 0.1875 0  0.875 0.1875 0  0.90625 0.1875 0  0.9375 0.1875 0  0.96875 0.1875 0  1 0.1875 0  0 0.21875 0  0.03125 0.21875 0  0.0625 0.21875 0  0.09375 0.21875 0  0.125 0.21875 0  0.15625 0.21875 0  0.1875 0.21875 0  0.21875 0.21875 0  0.25 0.21875 0  0.28125 0.21875 0  0.3125 0.21875 0  0.34375 0.21875 0  0.375 0.21875 0  0.40625 0.21875 0  0.4375 0.21875 0  0.46875 0.21875 0  0.5 0.21875 0  0.53125 0.21875 0  0.5625 0.21875 0  0.59375 0.21875 0  0.625 0.21875 0  0.65625 0.21875 0  0.6875 0.21875 0  0.71875 0.21875 0  0.75 0.21875 0  0.78125 0.21875 0  0.8125 0.21875 0  0.84375 0.21875 0  0.875 0.21875 0  0.90625 0.21875 0  0.9375 0.21875 0  0.96875 0.21875 0  1 0.21875 0  0 0.25 0  0.03125 0.25 0  0.0625 0.25 0  0.09375 0.25 0  0.125 0.25 0  0.15625 0.25 0  0.1875 0.25 0  0.21875 0.25 0  0.25 0.25 0  0.28125 0.25 0  0.3125 0.25 0  0.34375 0.25 0  0.375 0.25 0  0.40625 0.25 0  0.4375 0.25 0  0.46875 0.25 0  0.5 0.25 0  0.53125 0.25 0  0.5625 0.25 0  0.59375 0.25 0  0.625 0.25 0  0.65625 0.25 0  0.6875 0.25 0  0.71875 0.25 0  0.75 0.25 0  0.78125 0.25 0  0.8125 0.25 0  0.84375 0.25 0  0.875 0.25 0  0.90625 0.25 0  0.9375 0.25 0  0.96875 0.25 0  1 0.25 0  0 0.28125 0  0.03125 0.28125 0  0.0625 0.28125 0  0.09375 0.28125 0  0.125 0.28125 0  0.15625 0.28125 0  0.1875 0.28125 0  0.21875 0.28125 0  0.25 0.28125 0  0.28125 0.28125 0  0.3125 0.28125 0  0.34375 0.28125 0  0.375 0.28125 0  0.40625 0.28125 0  0.4375 0.28125 0  0.46875 0.28125 0  0.5 0.28125 0  0.53125 0.28125 0  0.5625 0.28125 0  0.59375 0.28125 0  0.625 0.28125 0  0.65625 0.28125 0  0.6875 0.28125 0  0.71875 0.28125 0  0.75 0.28125 0  0.78125 0.28125 0  0.8125 0.28125 0  0.84375 0.28125 0  0.875 0.28125 0  0.90625 0.28125 0  0.9375 0.28125 0  0.96875 0.28125 0  1 0.28125 0  0 0.3125 0  0.03125 0.3125 0  0.0625 0.3125 0  0.09375 0.3125 0  0.125 0.3125 0  0.15625 0.3125 0  0.1875 0.3125 0  0.21875 0.3125 0  0.25 0.3125 0  0.28125 0.3125 0  0.3125 0.3125 0  0.34375 0.3125 0  0.375 0.3125 0  0.40625 0.3125 0  0.4375 0.3125 0  0.46875 0.3125 0  0.5 0.3125 0  0.53125 0.3125 0  0.5625 0.3125 0  0.59375 0.3125 0  0.625 0.3125 0  0.65625 0.3125 0  0.6875 0.3125 0  0.71875 0.3125 0  0.75 0.3125 0  0.78125 0.3125 0  0.8125 0.3125 0  0.84375 0.3125 0  0.875 0.3125 0  0.90625 0.3125 0  0.9375 0.3125 0  0.96875 0.3125 0  1 0.3125 0  0 0.34375 0  0.03125 0.34375 0  0.0625 0.34375 0  0.09375 0.34375 0  0.125 0.34375 0  0.15625 0.34375 0  0.1875 0.34375 0  0.21875 0.34375 0  0.25 0.34375 0  0.28125 0.34375 0  0.3125 0.34375 0  0.34375 0.34375 0  0.375 0.34375 0  0.40625 0.34375 0  0.4375 0.34375 0  0.46875 0.34375 0  0.5 0.34375 0  0.53125 0.34375 0  0.5625 0.34375 0  0.59375 0.34375 0  0.625 0.34375 0  0.65625 0.34375 0  0.6875 0.34375 0  0.71875 0.34375 0  0.75 0.34375 0  0.78125 0.34375 0  0.8125 0.34375 0  0.84375 0.34375 0  0.875 0.34375 0  0.90625 0.34375 0  0.9375 0.34375 0  0.96875 0.34375 0  1 0.34375 0  0 0.375 0  0.03125 0.375 0  0.0625 0.375 0  0.09375 0.375 0  0.125 0.375 0  0.15625 0.375 0  0.1875 0.375 0  0.21875 0.375 0  0.25 0.375 0  0.28125 0.375 0  0.3125 0.375 0  0.34375 0.375 0  0.375 0.375 0  0.40625 0.375 0  0.4375 0.375 0  0.46875 0.375 0  0.5 0.375 0  0.53125 0.375 0  0.5625 0.375 0  0.59375 0.375 0  0.625 0.375 0  0.65625 0.375 0  0.6875 0.375 0  0.71875 0.375 0  0.75 0.375 0  0.78125 0.375 0  0.8125 0.375 0  0.84375 0.375 0  0.875 0.375 0  0.90625 0.375 0  0.9375 0.375 0  0.96875 0.375 0  1 0.375 0  0 0.40625 0  0.03125 0.40625 0  0.0625 0.40625 0  0.09375 0.40625 0  0.125 0.40625 0  0.15625 0.40625 0  0.1875 0.40625 0  0.21875 0.40625 0  0.25 0.40625 0  0.28125 0.40625 0  0.3125 0.40625 0  0.34375 0.40625 0  0.375 0.40625 0  0.40625 0.40625 0  0.4375 0.40625 0  0.46875 0.40625 0  0.5 0.40625 0  0.53125 0.40625 0  0.5625 0.40625 0  0.59375 0.40625 0  0.625 0.40625 0  0.65625 0.40625 0  0.6875 0.40625 0  0.71875 0.40625 0  0.75 0.40625 0  0.78125 0.40625 0  0.8125 0.40625 0  0.84375 0.40625 0  0.875 0.40625 0  0.90625 0.40625 0  0.9375 0.40625 0  0.96875 0.40625 0  1 0.40625 0  0 0.4375 0  0.03125 0.4375 0  0.0625 0.4375 0  0.09375 0.4375 0  0.125 0.4375 0  0.15625 0.4375 0  0.1875 0.4375 0  0.21875 0.4375 0  0.25 0.4375 0  0.28125 0.4375 0  0.3125 0.4375 0  0.34375 0.4375 0  0.375 0.4375 0  0.40625 0.4375 0  0.4375 0.4375 0  0.46875 0.4375 0  0.5 0.4375 0  0.53125 0.4375 0  0.5625 0.4375 0  0.59375 0.4375 0  0.625 0.4375 0  0.65625 0.4375 0  0.6875 0.4375 0  0.71875 0.4375 0  0.75 0.4375 0  0.78125 0.4375 0  0.8125 0.4375 0  0.84375 0.4375 0  0.875 0.4375 0  0.90625 0.4375 0  0.9375 0.4375 0  0.96875 0.4375 0  1 0.4375 0  0 0.46875 0  0.03125 0.46875 0  0.0625 0.46875 0  0.09375 0.46875 0  0.125 0.46875 0  0.15625 0.46875 0  0.1875 0.46875 0  0.21875 0.46875 0  0.25 0.46875 0  0.28125 0.46875 0  0.3125 0.46875 0  0.34375 0.46875 0  0.375 0.46875 0  0.40625 0.46875 0  0.4375 0.46875 0  0.46875 0.46875 0  0.5 0.46875 0  0.53125 0.46875 0  0.5625 0.46875 0  0.59375 0.46875 0  0.625 0.46875 0  0.65625 0.46875 0  0.6875 0.46875 0  0.71875 0.46875 0  0.75 0.46875 0  0.78125 0.46875 0  0.8125 0.46875 0  0.84375 0.46875 0  0.875 0.46875 0  0.90625 0.46875 0  0.9375 0.46875 0  0.96875 0.46875 0  1 0.46875 0  0 0.5 0  0.03125 0.5 0  0.0625 0.5 0  0.09375 0.5 0  0.125 0.5 0  0.15625 0.5 0  0.1875 0.5 0  0.21875 0.5 0  0.25 0.5 0  0.28125 0.5 0  0.3125 0.5 0  0.34375 0.5 0  0.375 0.5 0  0.40625 0.5 0  0.4375 0.5 0  0.46875 0.5 0  0.5 0.5 0  0.53125 0.5 0  0.5625 0.5 0  0.59375 0.5 0  0.625 0.5 0  0.65625 0.5 0  0.6875 0.5 0  0.71875 0.5 0  0.75 0.5 0  0.78125 0.5 0  0.8125 0.5 0  0.84375 0.5 0  0.875 0.5 0  0.90625 0.5 0  0.9375 0.5 0  0.96875 0.5 0  1 0.5 0  0 0.53125 0  0.03125 0.53125 0  0.0625 0.53125 0  0.09375 0.53125 0  0.125 0.53125 0  0.15625 0.53125 0  0.1875 0.53125 0  0.21875 0.53125 0  0.25 0.53125 0  0.28125 0.53125 0  0.3125 0.53125 0  0.34375 0.53125 0  0.375 0.53125 0  0.40625 0.53125 0  0.4375 0.53125 0  0.46875 0.53125 0  0.5 0.53125 0  0.53125 0.53125 0  0.5625 0.53125 0  0.59375 0.53125 0  0.625 0.53125 0  0.65625 0.53125 0  0.6875 0.53125 0  0.71875 0.53125 0  0.75 0.53125 0  0.78125 0.531
[...]
<PointData  Scalars="f_31-1"> 
<DataArray  type="Float64"  Name="f_31-1"  format="ascii">-9.0964449444051024e+02  -9.0710560545751514e+02  -8.5237660655241120e+02  -7.6876088575682047e+02  -6.7591797019229909e+02  -5.8343470215194179e+02  -4.9679613429763697e+02  -4.1884821019781896e+02  -3.5047346833685259e+02  -2.9144726797729379e+02  -2.4085677240475300e+02  -1.9736348174643769e+02  -1.5937448598117791e+02  -1.2513627229144934e+02  -9.2785170688988799e+01  -6.0366771335436546e+01  -2.5840844802862257e+01  1.2926754057956753e+01  5.8169439723554234e+01  1.1222575347521169e+02  1.7752585173465184e+02  2.5655903113344345e+02  3.5179482105254499e+02  4.6555030998188101e+02  5.9974685148421315e+02  7.5550580234978668e+02  9.3256842631238862e+02  1.1282209409775635e+03  1.3356895567664235e+03  1.5422560064345437e+03  1.7236623620729342e+03  1.8380510421979527e+03  1.8316317477120053e+03  -9.1410602030244456e+02  -8.9797012968220349e+02  -8.4508022594307135e+02  -7.7119678021101015e+02  -6.8733830535098537e+02  -6.0151763937629528e+02  -5.1890732939345173e+02  -4.4232474920724451e+02  -3.7300409998674792e+02  -3.1111883376848994e+02  -2.5612333413165277e+02  -2.0700129496000110e+02  -1.6242710350277309e+02  -1.2086636359284957e+02  -8.0638466828167807e+01  -3.9949385918645739e+01  3.0878382498642196e+00  5.0447113601929452e+01  1.0417458213785021e+02  1.6638246024514800e+02  2.3920720493897005e+02  3.2476687271093618e+02  4.2505183624960557e+02  5.4178104382059962e+02  6.7614039181801945e+02  8.2841655146275411e+02  9.9743731070695492e+02  1.1796873128581292e+03  1.3683093595654741e+03  1.5511542970894952e+03  1.7090321557067423e+03  1.8144062089376034e+03  1.8379223011656829e+03  -9.6826452862712654e+02  -9.2544392643374283e+02  -8.6084794892197795e+02  -7.8374063736604910e+02  -7.0030116279653726e+02  -6.1607832237090440e+02  -5.3465724777543210e+02  -4.5821686149228634e+02  -3.8781707079795689e+02  -3.2365073831902515e+02  -2.6529498681500206e+02  -2.1189382633199838e+02  -1.6228666762742142e+02  -1.1509713177163277e+02  -6.8794653482679266e+01  -2.1728011886451455e+01  2.7843139536651275e+01  8.1739939104718914e+01  1.4183177443016612e+02  2.1003174660845249e+02  2.8823023895280136e+02  3.7826540224413407e+02  4.8179017472071894e+02  6.0016379019451529e+02  7.3418740043638684e+02  8.8386059691836340e+02  1.0478893943818623e+03  1.2231132721592974e+03  1.4040581208421788e+03  1.5815422294377606e+03  1.7433312856788189e+03  1.8735762882983909e+03  1.9590771383183815e+03  -1.0499672712874963e+03  -9.7281620207496121e+02  -8.8889347335136051e+02  -8.0177923019660830e+02  -7.1375742962083916e+02  -6.2759223643511166e+02  -5.4522862466335857e+02  -4.6795741173576243e+02  -3.9633844896570935e+02  -3.3034860965731929e+02  -2.6951249376164247e+02  -2.1300605448017185e+02  -1.5974810106388392e+02  -1.0846436413606396e+02  -5.7737820523118558e+01  -6.0378686062855147e+00  4.8248019109490549e+01  1.0680440150127185e+02  1.7135036407350111e+02  2.4363516671641764e+02  3.2536804072693593e+02  4.1819825994932307e+02  5.2359276862859622e+02  6.4275399226360514e+02  7.7642471008354255e+02  9.2471350849720568e+02  1.0867945652841040e+03  1.2605806884936640e+03  1.4426782298923465e+03  1.6276653789218024e+03  1.8093646605535585e+03  1.9805410997069255e+03  2.1394943961549561e+03  -1.1372379305541569e+03  -1.0260558545159952e+03  -9.2078182461925417e+02  -8.2073572240244653e+02  -7.2534806561150913e+02  -6.3515786764047891e+02  -5.5059955639031648e+02  -4.7194584210283057e+02  -3.9914166622414535e+02  -3.3182213291842965e+02  -2.6934443768705955e+02  -2.1082673936872365e+02  -1.5520143858470752e+02  -1.0124840189138271e+02  -4.7631021991081724e+01  7.0847817832749351e+00  6.4402955267533386e+01  1.2589180779756640e+02  1.9314521823033826e+02  2.6778657614907286e+02  3.5139845959065269e+02  4.4552406457500501e+02  5.5155922425230926e+02  6.7071312136778840e+02  8.0387888820687840e+02  9.5155301060502450e+02  1.1136656041940330e+03  1.2895367770559046e+03  1.4779812950705789e+03  1.6770373948575514e+03  1.8855517195519535e+03  2.1028376275302053e+03  2.3349760093976211e+03  -1.2140014889827803e+03  -1.0731475648403871e+03  -9.4794823341947790e+02  -8.3496782447729515e+02  -7.3173651995167700e+02  -6.3704390574487411e+02  -5.5001867152040199e+02  -4.7003333482387399e+02  -3.9641373442217389e+02  -3.2842007214147662e+02  -2.6518950995087442e+02  -2.0573739899205339e+02  -1.4896924814004021e+02  -9.3687955968290922e+01  -3.8613409182533040e+01  1.7610507400736065e+01  7.6396910881116810e+01  1.3921518601322109e+02  2.0755777924284629e+02  2.8295223843044226e+02  3.6690017876693111e+02  4.6089657595837639e+02  5.6634935513887012e+02  6.8457182838344590e+02  8.1673695596442224e+02  9.6383464760080119e+02  1.1266807326806095e+03  1.3059667523152971e+03  1.5025411512716921e+03  1.7173473553669130e+03  1.9530315269169871e+03  2.2135688491200476e+03  2.5094897938841823e+03  -1.2688587738259773e+03  -1.1046792608218263e+03  -9.6328721744564768e+02  -8.3955195599950548e+02  -7.2970997439115513e+02  -6.3127889364859243e+02  -5.4241181953449018e+02  -4.6173384622040271e+02  -3.8803780742430109e+02  -3.2023216557825180e+02  -2.5723561692806265e+02  -1.9795038297189484e+02  -1.4123912300173896e+02  -8.5913870814908250e+01  -3.0737876468447833e+01  2.5579239290442374e+01  8.4370568628248506e+01  1.4701927432814088e+02  2.1493182815325642e+02  2.8956070095905534e+02  3.7235350727443387e+02  4.6479198017459515e+02  5.6833674940409401e+02  6.8444951627273201e+02  8.1461912499042580e+02  9.6033892240391253e+02  1.1232559226115254e+03  1.3052807587978684e+03  1.5088859234448157e+03  1.7373191544291665e+03  1.9958693016929419e+03  2.2915905779060690e+03  2.6376833029226623e+03  -1.2937525615577460e+03  -1.1136800935937051e+03  -9.6129401256933897e+02  -8.3039269425646648e+02  -7.1640017735905246e+02  -6.1600037946495922e+02  -5.2666626522694025e+02  -4.4646452701390763e+02  -3.7377851288254493e+02  -3.0723107737919281e+02  -2.4556606235961274e+02  -1.8758578306834136e+02  -1.3211984058621624e+02  -7.7989316830596508e+01  -2.3999198827494183e+01  3.1077871457095956e+01  8.8499344851283055e+01  1.4956672021798894e+02  2.1560778640821570e+02  2.8800791045372762e+02  3.6817146902508125e+02  4.5757576088899822e+02  5.5774083918057340e+02  6.7027215244211993e+02  7.9694620663921580e+02  9.3968528954630449e+02  1.1008327194825313e+03  1.2832293147365065e+03  1.4905767896181758e+03  1.7277375930332523e+03  2.0017282221033911e+03  2.3215889933754679e+03  2.7019611859125662e+03  -1.2832275646003875e+03  -1.0954134622521751e+03  -9.3809530590966301e+02  -8.0449432949006609e+02  -6.8964583000950915e+02  -5.8974953120418240e+02  -5.0186569505188146e+02  -4.2371236939570684e+02  -3.5339569362887795e+02  -2.8935524742308064e+02  -2.3021216113572191e+02  -1.7471045557986184e+02  -1.2166745132414749e+02  -6.9927597179057955e+01  -1.8346528804997892e+01  3.4234958038106093e+01  8.8994648055151288e+01  1.4714987690051834e+02  2.0994759854130712e+02  2.7870255601506420e+02  3.5476965630202363e+02  4.3961050863509308e+02  5.3478170665718346e+02  6.4199097199419180e+02  7.6322833352462214e+02  9.0072164259482122e+02  1.0573159148692853e+03  1.2364764821264712e+03  1.4427014032703000e+03  1.6818815099928404e+03  1.9619477679893505e+03  2.2931047381608100e+03  2.6903968940976197e+03  -1.2344019625521562e+03  -1.0472174108866295e+03  -8.9139697404233164e+02  -7.6002523400725636e+02  -6.4808030223634876e+02  -5.5158563952578209e+02  -4.6742401968688125e+02  -3.9316393629258062e+02  -3.2676817134156892e+02  -2.6660040584227232e+02  -2.1122766948902049e+02  -1.5938773611276923e+02  -1.0991904665358668e+02  -6.1714065082070839e+01  -1.3695193780648822e+01  3.5215873980091935e+01  8.6107262001082432e+01  1.4010251886437237e+02  1.9835725695578117e+02  2.6210211972849021e+02  3.3262368419584607e+02  4.1133978281656550e+02  4.9979964620064561e+02  5.9974881494030819e+02  7.1328588062377821e+02  8.4279908803033004e+02  9.9141301060144713e+02  1.1629090942920352e+03  1.3621856266248783e+03  1.5955989811731288e+03  1.8714013858601086e+03  2.2001742449395797e+03  2.5965545981687133e+03  -1.1466705365926957e+03  -9.6829457432173479e+02  -8.2040768834448625e+02  -6.9631892174332211e+02  -5.9121388845443641e+02  -5.0119122731258062e+02  -4.2319503781528283e+02  -3.5479241965186276e+02  -2.9396002123787491e+02  -2.3907077321205040e+02  -1.8872623157074062e+02  -1.4170782133832236e+02  -9.6917647587246265e+01  -5.3324261348663555e+01  -9.9392573236810033e+00  3.4217313327435363e+01  8.0128483911793296e+01  1.2880893047105909e+02  1.8130633268588326e+02  2.3874604071807335e+02  3.0231864227741329e+02  3.7335910864404701e+02  4.5335290283202647e+02  5.4400413799858518e+02  6.4740432974422777e+02  7.6594517453160813e+02  9.0281026165188428e+02  1.0618061757396440e+03  1.2478649196665276e+03  1.4673358455993639e+03  1.7282537532864517e+03  2.0409562120605860e+03  2.4189959956650555e+03  -1.0214482905008207e+03  -8.5956817961191916e+02  -7.2574661891088442e+02  -6.1380515888676439e+02  -5.1938046894562262e+02  -4.3887975690175136e+02  -3.6947462699890423e+02  -3.0889807728057610e+02  -2.5524670304941688e+02  -2.0702034097107909e+02  -1.6291508995109660e+02  -1.2181666089597454e+02  -8.2732253902076323e+01  -4.4737354656880797e+01  -6.9588442484104309e+00  3.1464585194225879e+01  7.1392510388332113e+01  1.1371234972920537e+02  1.5934321432185320e+02  2.0927977815641600e+02  2.6458411296298357e+02  3.2646332659191484e+02  3.9627714967242122e+02  4.7560631169108370e+02  5.6641517098704730e+02  6.7095072242816480e+02  7.9224263365738875e+02  9.3386737041742140e+02  1.1004589619757473e+03  1.2979589768720853e+03  1.5337391837211908e+03  1.8173434934324605e+03  2.1606849841024487e+03  -8.6198098577951771e+02  -7.2349945227580406e+02  -6.0928691187322761e+02  -5.1393114925984287e+02  -4.3373160875718952e+02  -3.6557726700097015e+02  -3.0702555776647580e+02  -2.5610873731804236e+02  -2.1115610730045447e+02  -1.7087132763977306e+02  -1.3411449717177368e+02  -9.9931365483157379e+01  -6.7469223444935196e+01  -3.5946449128295221e+01  -4.6279975630004300e+00  2.7207035432208098e+01  6.0275451265166673e+01  9.5317946373410209e+01  1.3310290889215290e+02  1.7446815389081434e+02  2.2031253205638490e+02  2.7167065879023494e+02  3.2971607423197656e+02  3.9582486767029440e+02  4.7172559785670182e+02  5.5938295829895935e+02  6.6148589088169092e+02  7.8115651372593504e+02  9.2245302391447103e+02  1.0905692678367361e+03  1.2918402293239676e+03  1.5345586539978715e+03  1.8285239755610653e+03  -6.7311080476754910e+02  -5.6388680107380651e+02  -4.7400649130492070e+02  -3.9903877955840204e+02  -3.3611728490040781e+02  -2.8275770480628904e+02  -2.3703481889350354e+02  -1.9737749182175867e+02  -1.6244375981224044e+02  -1.3120816055944073e+02  -1.0275936788667580e+02  -7.6338770575539741e+01  -5.1278831298516693e+01  -2.6962413713255476e+01  -2.8182025369504142e+00  2.1715393511639039e+01  4.7193912395721711e+01  7.4192436727944141e+01  1.0330829236942532e+02  1.3519634137823553e+02  1.7056205069001811e+02  2.1022482324270743e+02  2.5511783691057772e+02  3.0634263034587605e+02  3.6529502271202790e+02  4.3354173180032490e+02  5.1327340145684718e+02  6.0697680217811330e+02  7.1790078759914650e+02  8.5022510764422725e+02  1.0089386267901028e+03  1.2007074313227465e+03  1.4328531399602111e+03  -4.6100980272526408e+02  -3.8563861629131355e+02  -3.2379880244661751e+02  -2.7222042717238378e+02  -2.2899647503573902e+02  -1.9237668828507228e+02  -1.6105078414318587e+02  -1.3393422573863845e+02  -1.1007040747144205e+02  -8.8770407283789027e+01  -6.9385707815183565e+01  -5.1401759978700611e+01  -3.4353192892971201e+01  -1.7816671065705293e+01  -1.4014708061540353e+00  1.5277873180087939e+01  3.2599773864134839e+01  5.0958458065300718e+01  7.0761791194387570e+01  9.2461964229453557e+01  1.1654267473377702e+02  1.4357601732866397e+02  1.7420946090931579e+02  2.0921198176328821e+02  2.4957219927449671e+02  2.9636816094073998e+02  3.5116853676013795e+02  4.1568497501693184e+02  4.9218349498008513e+02  5.8362152912094302e+02  6.9341154475331632e+02  8.2629867914705540e+02  9.8686807454147561e+02  -2.3288109256381128e+02  -1.9452139408440294e+02  -1.6326909215723512e+02  -1.3714930213344718e+02  -1.1528984156750678e+02  -9.6757503478567870e+01  -8.0922837948317081e+01  -6.7231432332105456e+01  -5.5169782014373553e+01  -4.4417125086702463e+01  -3.4625002118859136e+01  -2.5538098846285141e+01  -1.6921488266813398e+01  -8.5576656395261494e+00  -2.5089927627965497e-01  8.1960618899035289e+00  1.6974014441624565e+01  2.6284378716051034e+01  3.6333727160169552e+01  4.7354687374225463e+01  5.9592683801644498e+01  7.3345494316145292e+01  8.8944830709857428e+01  1.0678803085424822e+02  1.2740356781573529e+02  1.5131472317305548e+02  1.7939027524387814e+02  2.1246862658691896e+02  2.5171513823751360e+02  2.9872678097853156e+02  3.5517902072701253e+02  4.2370074298755867e+02  5.0597606100373594e+02  3.3694995209985716e+00  3.1143118869861013e+00  2.4935846048178290e+00  2.1065692574953703e+00  1.7574286664129897e+00  1.5164480386622319e+00  1.3085433040789078e+00  1.1233840450177557e+00  1.0097023898691531e+00  9.0247560520705516e-01  8.3669244577074142e-01  7.8986650678551351e-01  7.6153337484069084e-01  7.5330125101789391e-01  7.5849968182122463e-01  7.8130761985887620e-01  8.1818874434509770e-01  8.7244496334209398e-01  9.4154900066095382e-01  1.0324408974620445e+00  1.1394277582799659e+00  1.2760352743622334e+00  1.4413977409620484e+00  1.6385689047078831e+00  1.9096017925864075e+00  2.1946578540928265e+00  2.6146578382892534e+00  3.0859889736733210e+00  3.6212808724374703e+00  4.3776944120580756e+00  5.2191144047992966e+00  6.5506682738926321e+00  7.0979475760574857e+00  2.3948256732663532e+02  2.0062361819489433e+02  1.6815634138287007e+02  1.4128026622460735e+02  1.1873957417534312e+02  9.9735896582506697e+01  8.3495624468402553e+01  6.9442060335353702e+01  5.7160001107423469e+01  4.6197672933433132e+01  3.6276564773092026e+01  2.7098897377808957e+01  1.8427297950718899e+01  1.0047377773404140e+01  1.7517509688573747e+00  -6.6500643115364806e+00  -1.5354967495255980e+01  -2.4558358295848073e+01  -3.4471052749738369e+01  -4.5313708715709744e+01  -5.7340483424595682e+01  -7.0824602098236070e+01  -8.6100868136621827e+01  -1.0355628063328702e+02  -1.2364076301316867e+02  -1.4699732166219439e+02  -1.7425079490308909e+02  -2.0640861485052102e+02  -2.4460822679809928e+02  -2.9014319486175759e+02  -3.4495119617982255e+02  -4.1086622694854475e+02  -4.9207153920366716e+02  4.6720444266257681e+02  3.9136532515607524e+02  3.2839092104412242e+02  2.7610805130439110e+02  2.3225275848588555e+02  1.9519313977993676e+02  1.6349535606972071e+02  1.3604060287347824e+02  1.1197305198515886e+02  9.0477525978902122e+01  7.0975140049047667e+01  5.2906261143775353e+01  3.5807513703495452e+01  1.9257655092060233e+01  2.8539014466661738e+00  -1.3780961617456004e+01  -3.1032371149713263e+01  -4.9287753542523497e+01  -6.8960453681570584e+01  -9.0489297087650272e+01  -1.1436930236976845e+02  -1.4114845826949400e+02  -1.7147486021244282e+02  -2.0611670895194661e+02  -2.4597832997313543e+02  -2.9225783016266854e+02  -3.4628905440754318e+02  -4.0995745511115990e+02  -4.8547921360158159e+02  -5.7554675784739300e+02  -6.8380517989517659e+02  -8.1425698042622992e+02  -9.7382566539419736e+02  6.7864525544318781e+02  5.6900139782396798e+02  4.7812004739011172e+02  4.0253232428409916e+02  3.3906059739149509e+02  2.8531542216697670e+02  2.3926869798064095e+02  1.9931511909789040e+02  1.6420549890433523e+02  1.3279797424085473e+02  1.0424568394175375e+02  7.7752665684292126e+01  5.2649543727841731e+01  2.8323536021881591e+01  4.1919713069418387e+00  -2.0298825479783698e+01  -4.5710625794665944e+01  -7.2612096956632783e+01  -1.0160581082495128e+02  -1.3333478408876343e+02  -1.6851610109467134e+02  -2.0794594108610164e+02  -2.5256418802060517e+02  -3.0346377974393556e+02  -3.6197162707500866e+02  -4.2976558657807766e+02  -5.0881972386966385e+02  -6.0178059683414187e+02  -7.1184725604269340e+02  -8.4297412803336147e+02  -1.0003404939195935e+03  -1.1899575474607282e+03  -1.4212101172839350e+03  8.6662560566722209e+02  7.2778749709809904e+02  6.1275824917425973e+02  5.1689689175839749e+02  4.3625321828891305e+02  3.6778959268891111e+02  3.0898208856966613e+02  2.5782176039281467e+02  2.1273197252025227e+02  1.7230391645223929e+02  1.3546582735579571e+02  1.0122248040644388e+02  6.8726941313327416e+01  3.7199350596459603e+01  5.8946659808531514e+00  -2.5899290941677275e+01  -5.8906126413547653e+01  -9.3859323117734448e+01  -1.3153391297828216e+02  -1.7275565342733779e+02  -2.1843624460001701e+02  -2.6959133290820404e+02  -3.2739610800809481e+02  -3.9323348600960492e+02  -4.6875695881570135e+02  -5.5604903787344938e+02  -6.5759086676592699e+02  -7.7666848320527754e+02  -9.1727401991828947e+02  -1.0844218649674133e+03  -1.2845948828241376e+03  -1.5255543145031625e+03  -1.8187666123669544e+03  1.0250037181227178e+03  8.6284735283755469e+02  7.2843617189622091e+02  6.1613298518201589e+02  5.2139413873942954e+02  4.4067981429652247e+02  3.7109649303958059e+02  3.1034219696084585e+02  2.5659875261562843e+02  2.0826553362159379e+02  1.6410187939415769e+02  1.2296018754392864e+02  8.3851695193308089e+01  4.5857044813424537e+01  8.0933821203015448e+00  -3.0291297888702655e+01  -7.0163422705459325e+01  -1.1240312423910017e+02  -1.5793678835398103e+02  -2.0774745828967366e+02  -2.6291200568442048e+02  -3.2461900601305894e+02  -3.9423788008902198e+02  -4.7335343158608117e+02  -5.6386891579217627e+02  -6.6814245372131393e+02  -7.8901862200391486e+02  -9.3022168602610930e+02  -1.0963313226387759e+03  -1.2931441384479203e+03  -1.5281398285476575e+03  -1.8104725409601454e+03  -2.1532348979344201e+03  1.1489748103953275e+03  9.7042379240746493e+02  8.2220836846058012e+02  6.9792597214707871e+02  5.9265420748677866e+02  5.0252797280597343e+02  4.2444447145345947e+02  3.5594034704584681e+02  2.9506140931887035e+02  2.4010515859541582e+02  1.8972735177000200e+02  1.4268189823960759e+02  9.7878045503208000e+01  5.4289355110473480e+01  1.0919617595303217e+01  -3.3201029540362647e+01  -7.9062827721167267e+01  -1.2767263314799663e+02  -1.8008649509871617e+02  -2.3741877576414777e+02  -3.0087594275799660e+02  -3.7177926712360608e+02  -4.5162401735129112e+02  -5.4212493268992296e+02  -6.4532452274395712e+02  -7.6371028488612978e+02  -9.0032671879504892e+02  -1.0591024543812509e+03  -1.2449195280319520e+03  -1.4640249949431054e+03  -1.7245235105335355e+03  -2.0365212433058371e+03  -2.4141960259411726e+03  1.2353395704954344e+03  1.0480966714350616e+03  8.9223867871140169e+02  7.6086026371638366e+02  6.4892009426625282e+02  5.5243627759976448e+02  4.6828594847653898e+02  3.9400058827615453e+02  3.2761042277420154e+02  2.6741262141826377e+02  2.1203069278014880e+02  1.6017830722899996e+02  1.1070441684493301e+02  6.2507377842856179e+01  1.4503429636582785e+01  -3.4375251537923994e+01  -8.5223822409789221e+01  -1.3915768374695659e+02  -1.9734212905463272e+02  -2.6099702772039825e+02  -3.3142657068898984e+02  -4.1003780338425992e+02  -4.9839227062251405e+02  -5.9825344130239000e+02  -7.1167876924186010e+02  -8.4115682218636459e+02  -9.8969213650762231e+02  -1.1611853805085659e+03  -1.3604744403386974e+03  -1.5938934879322001e+03  -1.8696850878563851e+03  -2.1983883842984078e+03  -2.5946521407256114e+03  1.2827277745497427e+03  1.0949862867050849e+03  9.3795644377642566e+02  8.0454422868342169e+02  6.8988148775133322e+02  5.9012149772138457e+02  5.0234292026550690e+02  4.2424441085901196e+02  3.5397758878136432e+02  2.8994467296721467e+02  2.3081184066438490e+02  1.7530979468422410e+02  1.2226668000455061e+02  7.0535759363144280e+01  1.8967573892520370e+01  -3.3585877183419200e+01  -8.8309462615440623e+01  -1.4641185429778085e+02  -2.0915055643440323e+02  -2.7783021932311345e+02  -3.5382451128320560e+02  -4.3858693481192938e+0