<?xml version="1.0"?>
<VTKFile type="UnstructuredGrid"  version="0.1"  >
<UnstructuredGrid>
<Piece  NumberOfPoints="1089" NumberOfCells="2048">
<Points>
<DataArray  type="Float64"  NumberOfComponents="3"  format="ascii">0 0 0  0.03125 0 0  0.0625 0 0  0.09375 0 0  0.125 0 0  0.15625 0 0  0.1875 0 0  0.21875 0 0  0.25 0 0  0.28125 0 0  0.3125 0 0  0.34375 0 0  0.375 0 0  0.40625 0 0  0.4375 0 0  0.46875 0 0  0.5 0 0  0.53125 0 0  0.5625 0 0  0.59375 0 0  0.625 0 0  0.65625 0 0  0.6875 0 0  0.71875 0 0  0.75 0 0  0.78125 0 0  0.8125 0 0  0.84375 0 0  0.875 0 0  0.90625 0 0  0.9375 0 0  0.96875 0 0  1 0 0  0 0.03125 0  0.03125 0.03125 0  0.0625 0.03125 0  0.09375 0.03125 0  0.125 0.03125 0  0.15625 0.03125 0  0.1875 0.03125 0  0.21875 0.03125 0  0.25 0.03125 0  0.28125 0.03125 0  0.3125 0.03125 0  0.34375 0.03125 0  0.375 0.03125 0  0.40625 0.03125 0  0.4375 0.03125 0  0.46875 0.03125 0  0.5 0.03125 0  0.53125 0.03125 0  0.5625 0.03125 0  0.59375 0.03125 0  0.625 0.03125 0  0.65625 0.03125 0  0.6875 0.03125 0  0.71875 0.03125 0  0.75 0.03125 0  0.78125 0.03125 0  0.8125 0.03125 0  0.84375 0.03125 0  0.875 0.03125 0  0.90625 0.03125 0  0.9375 0.03125 0  0.96875 0.03125 0  1 0.03125 0  0 0.0625 0  0.03125 0.0625 0  0.0625 0.0625 0  0.09375 0.0625 0  0.125 0.0625 0  0.15625 0.0625 0  0.1875 0.0625 0  0.21875 0.0625 0  0.25 0.0625 0  0.28125 0.0625 0  0.3125 0.0625 0  0.34375 0.0625 0  0.375 0.0625 0  0.40625 0.0625 0  0.4375 0.0625 0  0.46875 0.0625 0  0.5 0.0625 0  0.53125 0.0625 0  0.5625 0.0625 0  0.59375 0.0625 0  0.625 0.0625 0  0.65625 0.0625 0  0.6875 0.0625 0  0.71875 0.0625 0  0.75 0.0625 0  0.78125 0.0625 0  0.8125 0.0625 0  0.84375 0.0625 0  0.875 0.0625 0  0.90625 0.0625 0  0.9375 0.0625 0  0.96875 0.0625 0  1 0.0625 0  0 0.09375 0  0.03125 0.09375 0  0.0625 0.09375 0  0.09375 0.09375 0  0.125 0.09375 0  0.15625 0.09375 0  0.1875 0.09375 0  0.21875 0.09375 0  0.25 0.09375 0  0.28125 0.09375 0  0.3125 0.09375 0  0.34375 0.09375 0  0.375 0.09375 0  0.40625 0.09375 0  0.4375 0.09375 0  0.46875 0.09375 0  0.5 0.09375 0  0.53125 0.09375 0  0.5625 0.09375 0  0.59375 0.09375 0  0.625 0.09375 0  0.65625 0.09375 0  0.6875 0.09375 0  0.71875 0.09375 0  0.75 0.09375 0  0.78125 0.09375 0  0.8125 0.09375 0  0.84375 0.09375 0  0.875 0.09375 0  0.90625 0.09375 0  0.9375 0.09375 0  0.96875 0.09375 0  1 0.09375 0  0 0.125 0  0.03125 0.125 0  0.0625 0.125 0  0.09375 0.125 0  0.125 0.125 0  0.15625 0.125 0  0.1875 0.125 0  0.21875 0.125 0  0.25 0.125 0  0.28125 0.125 0  0.3125 0.125 0  0.34375 0.125 0  0.375 0.125 0  0.40625 0.125 0  0.4375 0.125 0  0.46875 0.125 0  0.5 0.125 0  0.53125 0.125 0  0.5625 0.125 0  0.59375 0.125 0  0.625 0.125 0  0.65625 0.125 0  0.6875 0.125 0  0.71875 0.125 0  0.75 0.125 0  0.78125 0.125 0  0.8125 0.125 0  0.84375 0.125 0  0.875 0.125 0  0.90625 0.125 0  0.9375 0.125 0  0.96875 0.125 0  1 0.125 0  0 0.15625 0  0.03125 0.15625 0  0.0625 0.15625 0  0.09375 0.15625 0  0.125 0.15625 0  0.15625 0.15625 0  0.1875 0.15625 0  0.21875 0.15625 0  0.25 0.15625 0  0.28125 0.15625 0  0.3125 0.15625 0  0.34375 0.15625 0  0.375 0.15625 0  0.40625 0.15625 0  0.4375 0.15625 0  0.46875 0.15625 0  0.5 0.15625 0  0.53125 0.15625 0  0.5625 0.15625 0  0.59375 0.15625 0  0.625 0.15625 0  0.65625 0.15625 0  0.6875 0.15625 0  0.71875 0.15625 0  0.75 0.15625 0  0.78125 0.15625 0  0.8125 0.15625 0  0.84375 0.15625 0  0.875 0.15625 0  0.90625 0.15625 0  0.9375 0.15625 0  0.96875 0.15625 0  1 0.15625 0  0 0.1875 0  0.03125 0.1875 0  0.0625 0.1875 0  0.09375 0.1875 0  0.125 0.1875 0  0.15625 0.1875 0  0.1875 0.1875 0  0.21875 0.1875 0  0.25 0.1875 0  0.28125 0.1875 0  0.3125 0.1875 0  0.34375 0.1875 0  0.375 0.1875 0  0.40625 0.1875 0  0.4375 0.1875 0  0.46875 0.1875 0  0.5 0.1875 0  0.53125 0.1875 0  0.5625 0.1875 0  0.59375 0.1875 0  0.625 0.1875 0  0.65625 0.1875 0  0.6875 0.1875 0  0.71875 0.1875 0  0.75 0.1875 0  0.78125 0.1875 0  0.8125 0.1875 0  0.84375 0.1875 0  0.875 0.1875 0  0.90625 0.1875 0  0.9375 0.1875 0  0.96875 0.1875 0  1 0.1875 0  0 0.21875 0  0.03125 0.21875 0  0.0625 0.21875 0  0.09375 0.21875 0  0.125 0.21875 0  0.15625 0.21875 0  0.1875 0.21875 0  0.21875 0.21875 0  0.25 0.21875 0  0.28125 0.21875 0  0.3125 0.21875 0  0.34375 0.21875 0  0.375 0.21875 0  0.40625 0.21875 0  0.4375 0.21875 0  0.46875 0.21875 0  0.5 0.21875 0  0.53125 0.21875 0  0.5625 0.21875 0  0.59375 0.21875 0  0.625 0.21875 0  0.65625 0.21875 0  0.6875 0.21875 0  0.71875 0.21875 0  0.75 0.21875 0  0.78125 0.21875 0  0.8125 0.21875 0  0.84375 0.21875 0  0.875 0.21875 0  0.90625 0.21875 0  0.9375 0.21875 0  0.96875 0.21875 0  1 0.21875 0  0 0.25 0  0.03125 0.25 0  0.0625 0.25 0  0.09375 0.25 0  0.125 0.25 0  0.15625 0.25 0  0.1875 0.25 0  0.21875 0.25 0  0.25 0.25 0  0.28125 0.25 0  0.3125 0.25 0  0.34375 0.25 0  0.375 0.25 0  0.40625 0.25 0  0.4375 0.25 0  0.46875 0.25 0  0.5 0.25 0  0.53125 0.25 0  0.5625 0.25 0  0.59375 0.25 0  0.625 0.25 0  0.65625 0.25 0  0.6875 0.25 0  0.71875 0.25 0  0.75 0.25 0  0.78125 0.25 0  0.8125 0.25 0  0.84375 0.25 0  0.875 0.25 0  0.90625 0.25 0  0.9375 0.25 0  0.96875 0.25 0  1 0.25 0  0 0.28125 0  0.03125 0.28125 0  0.0625 0.28125 0  0.09375 0.28125 0  0.125 0.28125 0  0.15625 0.28125 0  0.1875 0.28125 0  0.21875 0.28125 0  0.25 0.28125 0  0.28125 0.28125 0  0.3125 0.28125 0  0.34375 0.28125 0  0.375 0.28125 0  0.40625 0.28125 0  0.4375 0.28125 0  0.46875 0.28125 0  0.5 0.28125 0  0.53125 0.28125 0  0.5625 0.28125 0  0.59375 0.28125 0  0.625 0.28125 0  0.65625 0.28125 0  0.6875 0.28125 0  0.71875 0.28125 0  0.75 0.28125 0  0.78125 0.28125 0  0.8125 0.28125 0  0.84375 0.28125 0  0.875 0.28125 0  0.90625 0.28125 0  0.9375 0.28125 0  0.96875 0.28125 0  1 0.28125 0  0 0.3125 0  0.03125 0.3125 0  0.0625 0.3125 0  0.09375 0.3125 0  0.125 0.3125 0  0.15625 0.3125 0  0.1875 0.3125 0  0.21875 0.3125 0  0.25 0.3125 0  0.28125 0.3125 0  0.3125 0.3125 0  0.34375 0.3125 0  0.375 0.3125 0  0.40625 0.3125 0  0.4375 0.3125 0  0.46875 0.3125 0  0.5 0.3125 0  0.53125 0.3125 0  0.5625 0.3125 0  0.59375 0.3125 0  0.625 0.3125 0  0.65625 0.3125 0  0.6875 0.3125 0  0.71875 0.3125 0  0.75 0.3125 0  0.78125 0.3125 0  0.8125 0.3125 0  0.84375 0.3125 0  0.875 0.3125 0  0.90625 0.3125 0  0.9375 0.3125 0  0.96875 0.3125 0  1 0.3125 0  0 0.34375 0  0.03125 0.34375 0  0.0625 0.34375 0  0.09375 0.34375 0  0.125 0.34375 0  0.15625 0.34375 0  0.1875 0.34375 0  0.21875 0.34375 0  0.25 0.34375 0  0.28125 0.34375 0  0.3125 0.34375 0  0.34375 0.34375 0  0.375 0.34375 0  0.40625 0.34375 0  0.4375 0.34375 0  0.46875 0.34375 0  0.5 0.34375 0  0.53125 0.34375 0  0.5625 0.34375 0  0.59375 0.34375 0  0.625 0.34375 0  0.65625 0.34375 0  0.6875 0.34375 0  0.71875 0.34375 0  0.75 0.34375 0  0.78125 0.34375 0  0.8125 0.34375 0  0.84375 0.34375 0  0.875 0.34375 0  0.90625 0.34375 0  0.9375 0.34375 0  0.96875 0.34375 0  1 0.34375 0  0 0.375 0  0.03125 0.375 0  0.0625 0.375 0  0.09375 0.375 0  0.125 0.375 0  0.15625 0.375 0  0.1875 0.375 0  0.21875 0.375 0  0.25 0.375 0  0.28125 0.375 0  0.3125 0.375 0  0.34375 0.375 0  0.375 0.375 0  0.40625 0.375 0  0.4375 0.375 0  0.46875 0.375 0  0.5 0.375 0  0.53125 0.375 0  0.5625 0.375 0  0.59375 0.375 0  0.625 0.375 0  0.65625 0.375 0  0.6875 0.375 0  0.71875 0.375 0  0.75 0.375 0  0.78125 0.375 0  0.8125 0.375 0  0.84375 0.375 0  0.875 0.375 0  0.90625 0.375 0  0.9375 0.375 0  0.96875 0.375 0  1 0.375 0  0 0.40625 0  0.03125 0.40625 0  0.0625 0.40625 0  0.09375 0.40625 0  0.125 0.40625 0  0.15625 0.40625 0  0.1875 0.40625 0  0.21875 0.40625 0  0.25 0.40625 0  0.28125 0.40625 0  0.3125 0.40625 0  0.34375 0.40625 0  0.375 0.40625 0  0.40625 0.40625 0  0.4375 0.40625 0  0.46875 0.40625 0  0.5 0.40625 0  0.53125 0.40625 0  0.5625 0.40625 0  0.59375 0.40625 0  0.625 0.40625 0  0.65625 0.40625 0  0.6875 0.40625 0  0.71875 0.40625 0  0.75 0.40625 0  0.78125 0.40625 0  0.8125 0.40625 0  0.84375 0.40625 0  0.875 0.40625 0  0.90625 0.40625 0  0.9375 0.40625 0  0.96875 0.40625 0  1 0.40625 0  0 0.4375 0  0.03125 0.4375 0  0.0625 0.4375 0  0.09375 0.4375 0  0.125 0.4375 0  0.15625 0.4375 0  0.1875 0.4375 0  0.21875 0.4375 0  0.25 0.4375 0  0.28125 0.4375 0  0.3125 0.4375 0  0.34375 0.4375 0  0.375 0.4375 0  0.40625 0.4375 0  0.4375 0.4375 0  0.46875 0.4375 0  0.5 0.4375 0  0.53125 0.4375 0  0.5625 0.4375 0  0.59375 0.4375 0  0.625 0.4375 0  0.65625 0.4375 0  0.6875 0.4375 0  0.71875 0.4375 0  0.75 0.4375 0  0.78125 0.4375 0  0.8125 0.4375 0  0.84375 0.4375 0  0.875 0.4375 0  0.90625 0.4375 0  0.9375 0.4375 0  0.96875 0.4375 0  1 0.4375 0  0 0.46875 0  0.03125 0.46875 0  0.0625 0.46875 0  0.09375 0.46875 0  0.125 0.46875 0  0.15625 0.46875 0  0.1875 0.46875 0  0.21875 0.46875 0  0.25 0.46875 0  0.28125 0.46875 0  0.3125 0.46875 0  0.34375 0.46875 0  0.375 0.46875 0  0.40625 0.46875 0  0.4375 0.46875 0  0.46875 0.46875 0  0.5 0.46875 0  0.53125 0.46875 0  0.5625 0.46875 0  0.59375 0.46875 0  0.625 0.46875 0  0.65625 0.46875 0  0.6875 0.46875 0  0.71875 0.46875 0  0.75 0.46875 0  0.78125 0.46875 0  0.8125 0.46875 0  0.84375 0.46875 0  0.875 0.46875 0  0.90625 0.46875 0  0.9375 0.46875 0  0.96875 0.46875 0  1 0.46875 0  0 0.5 0  0.03125 0.5 0  0.0625 0.5 0  0.09375 0.5 0  0.125 0.5 0  0.15625 0.5 0  0.1875 0.5 0  0.21875 0.5 0  0.25 0.5 0  0.28125 0.5 0  0.3125 0.5 0  0.34375 0.5 0  0.375 0.5 0  0.40625 0.5 0  0.4375 0.5 0  0.46875 0.5 0  0.5 0.5 0  0.53125 0.5 0  0.5625 0.5 0  0.59375 0.5 0  0.625 0.5 0  0.65625 0.5 0  0.6875 0.5 0  0.71875 0.5 0  0.75 0.5 0  0.78125 0.5 0  0.8125 0.5 0  0.84375 0.5 0  0.875 0.5 0  0.90625 0.5 0  0.9375 0.5 0  0.96875 0.5 0  1 0.5 0  0 0.53125 0  0.03125 0.53125 0  0.0625 0.53125 0  0.09375 0.53125 0  0.125 0.53125 0  0.15625 0.53125 0  0.1875 0.53125 0  0.21875 0.53125 0  0.25 0.53125 0  0.28125 0.53125 0  0.3125 0.53125 0  0.34375 0.53125 0  0.375 0.53125 0  0.40625 0.53125 0  0.4375 0.53125 0  0.46875 0.53125 0  0.5 0.53125 0  0.53125 0.53125 0  0.5625 0.53125 0  0.59375 0.53125 0  0.625 0.53125 0  0.65625 0.53125 0  0.6875 0.53125 0  0.71875 0.53125 0  0.75 0.53125 0  0.78125 0.531
[...]
<PointData  Vectors="f_31-0"> 
<DataArray  type="Float64"  Name="f_31-0"  NumberOfComponents="3" format="ascii">0.0000000000000000e+00 0.0000000000000000e+00 0.0000000000000000e+00  0.0000000000000000e+00 0.0000000000000000e+00 0.0000000000000000e+00  0.0000000000000000e+00 0.0000000000000000e+00 0.0000000000000000e+00  0.0000000000000000e+00 0.0000000000000000e+00 0.0000000000000000e+00  0.0000000000000000e+00 0.0000000000000000e+00 0.0000000000000000e+00  0.0000000000000000e+00 0.0000000000000000e+00 0.0000000000000000e+00  0.0000000000000000e+00 0.0000000000000000e+00 0.0000000000000000e+00  0.0000000000000000e+00 0.0000000000000000e+00 0.0000000000000000e+00  0.0000000000000000e+00 0.0000000000000000e+00 0.0000000000000000e+00  0.0000000000000000e+00 0.0000000000000000e+00 0.0000000000000000e+00  0.0000000000000000e+00 0.0000000000000000e+00 0.0000000000000000e+00  0.0000000000000000e+00 0.0000000000000000e+00 0.0000000000000000e+00  0.0000000000000000e+00 0.0000000000000000e+00 0.0000000000000000e+00  0.0000000000000000e+00 0.0000000000000000e+00 0.0000000000000000e+00  0.0000000000000000e+00 0.0000000000000000e+00 0.0000000000000000e+00  0.0000000000000000e+00 0.0000000000000000e+00 0.0000000000000000e+00  0.0000000000000000e+00 0.0000000000000000e+00 0.0000000000000000e+00  0.0000000000000000e+00 0.0000000000000000e+00 0.0000000000000000e+00  0.0000000000000000e+00 0.0000000000000000e+00 0.0000000000000000e+00  0.0000000000000000e+00 0.0000000000000000e+00 0.0000000000000000e+00  0.0000000000000000e+00 0.0000000000000000e+00 0.0000000000000000e+00  0.0000000000000000e+00 0.0000000000000000e+00 0.0000000000000000e+00  0.0000000000000000e+00 0.0000000000000000e+00 0.0000000000000000e+00  0.0000000000000000e+00 0.0000000000000000e+00 0.0000000000000000e+00  0.0000000000000000e+00 0.0000000000000000e+00 0.0000000000000000e+00  0.0000000000000000e+00 0.0000000000000000e+00 0.0000000000000000e+00  0.0000000000000000e+00 0.0000000000000000e+00 0.0000000000000000e+00  0.0000000000000000e+00 0.0000000000000000e+00 0.0000000000000000e+00  0.0000000000000000e+00 0.0000000000000000e+00 0.0000000000000000e+00  0.0000000000000000e+00 0.0000000000000000e+00 0.0000000000000000e+00  0.0000000000000000e+00 0.0000000000000000e+00 0.0000000000000000e+00  0.0000000000000000e+00 0.0000000000000000e+00 0.0000000000000000e+00  0.0000000000000000e+00 0.0000000000000000e+00 0.0000000000000000e+00  1.9509029110296008e+00 0.0000000000000000e+00 0.0000000000000000e+00  1.9791247161686332e+00 -2.7394158238318173e-02 0.0000000000000000e+00  2.0159391019193795e+00 -1.7790484440921784e-02 0.0000000000000000e+00  2.0258441941355465e+00 4.4782431560421658e-04 0.0000000000000000e+00  2.0041618819116662e+00 1.7236105922302038e-02 0.0000000000000000e+00  1.9566534465184293e+00 2.9453368027564694e-02 0.0000000000000000e+00  1.8920373999391895e+00 3.6486931275862729e-02 0.0000000000000000e+00  1.8191254004319679e+00 3.8830925562686705e-02 0.0000000000000000e+00  1.7458108536907060e+00 3.7250651363336308e-02 0.0000000000000000e+00  1.6786867936509899e+00 3.2502270629281182e-02 0.0000000000000000e+00  1.6231568101921696e+00 2.5247755758515504e-02 0.0000000000000000e+00  1.5834788513680274e+00 1.6047405339473790e-02 0.0000000000000000e+00  1.5630145191736069e+00 5.3443805760420857e-03 0.0000000000000000e+00  1.5643716080291714e+00 -6.5079164543359212e-03 0.0000000000000000e+00  1.5895588083804544e+00 -1.9233763955335614e-02 0.0000000000000000e+00  1.6400400116833180e+00 -3.2589479903450264e-02 0.0000000000000000e+00  1.7168197866474992e+00 -4.6338742424664632e-02 0.0000000000000000e+00  1.8204100754750239e+00 -6.0230836150962169e-02 0.0000000000000000e+00  1.9507747299832556e+00 -7.3981075721933062e-02 0.0000000000000000e+00  2.1072650393973356e+00 -8.7240877518172708e-02 0.0000000000000000e+00  2.2884415731422476e+00 -9.9559505399814952e-02 0.0000000000000000e+00  2.4918407832687355e+00 -1.1035402707693991e-01 0.0000000000000000e+00  2.7136942450995463e+00 -1.1886439921664139e-01 0.0000000000000000e+00  2.9486204712172137e+00 -1.2409746498003388e-01 0.0000000000000000e+00  3.1892075199356134e+00 -1.2480334160358020e-01 0.0000000000000000e+00  3.4255469498953532e+00 -1.1945253451954917e-01 0.0000000000000000e+00  3.6449645680469769e+00 -1.0631585029372242e-01 0.0000000000000000e+00  3.8320185173939993e+00 -8.3675650610411809e-02 0.0000000000000000e+00  3.9690187197291231e+00 -5.0469473375263751e-02 0.0000000000000000e+00  4.0386299084198063e+00 -7.9514879647460315e-03 0.0000000000000000e+00  4.0303608907968007e+00 3.6808325068329463e-02 0.0000000000000000e+00  3.9581516599186464e+00 6.0790434442442080e-02 0.0000000000000000e+00  3.9018058220592016e+00 0.0000000000000000e+00 0.0000000000000000e+00  3.8268337172672946e+00 0.0000000000000000e+00 0.0000000000000000e+00  3.8423635686754554e+00 -6.1373549710696564e-02 0.0000000000000000e+00  3.8526738852650713e+00 -3.1330207466383445e-02 0.0000000000000000e+00  3.8276621907394630e+00 2.3915194062839838e-02 0.0000000000000000e+00  3.7621842112337340e+00 7.6027357800627415e-02 0.0000000000000000e+00  3.6627121997136913e+00 1.1440513275084593e-01 0.0000000000000000e+00  3.5408671632588629e+00 1.3646236596725231e-01 0.0000000000000000e+00  3.4093238443983269e+00 1.4302039491029378e-01 0.0000000000000000e+00  3.2800324050922467e+00 1.3612032409139904e-01 0.0000000000000000e+00  3.1635161722669234e+00 1.1804412341014772e-01 0.0000000000000000e+00  3.0686060098880481e+00 9.0940666093469014e-02 0.0000000000000000e+00  3.0025236289567103e+00 5.6676965770338358e-02 0.0000000000000000e+00  2.9710338808000678e+00 1.6809625987280398e-02 0.0000000000000000e+00  2.9787437507994321e+00 -2.7394501986617411e-02 0.0000000000000000e+00  3.0291598432365987e+00 -7.4869171263640982e-02 0.0000000000000000e+00  3.1248803721490330e+00 -1.2467959802461402e-01 0.0000000000000000e+00  3.2676325175483205e+00 -1.7591118225263078e-01 0.0000000000000000e+00  3.4582274975953760e+00 -2.2759571142235416e-01 0.0000000000000000e+00  3.6964943641981760e+00 -2.7863887125424258e-01 0.0000000000000000e+00  3.9811338827266707e+00 -3.2770144142878199e-01 0.0000000000000000e+00  4.3094380814619742e+00 -3.7309663084964401e-01 0.0000000000000000e+00  4.6769360951117287e+00 -4.1268012331430143e-01 0.0000000000000000e+00  5.0770252158899076e+00 -4.4373098502884539e-01 0.0000000000000000e+00  5.5004771802938031e+00 -4.6282283573363919e-01 0.0000000000000000e+00  5.9349222760627809e+00 -4.6578184089305308e-01 0.0000000000000000e+00  6.3643664257305055e+00 -4.4775657056159268e-01 0.0000000000000000e+00  6.7690929018950694e+00 -4.0357880460788587e-01 0.0000000000000000e+00  7.1261178102354492e+00 -3.2869838409927338e-01 0.0000000000000000e+00  7.4106436599092689e+00 -2.2132894451497939e-01 0.0000000000000000e+00  7.6006011504501991e+00 -8.7198752753636685e-02 0.0000000000000000e+00  7.6851746350276011e+00 5.0376964403469365e-02 0.0000000000000000e+00  7.6811816783326341e+00 1.2870487593201357e-01 0.0000000000000000e+00  7.6536674345345892e+00 0.0000000000000000e+00 0.0000000000000000e+00  5.5557014498634816e+00 0.0000000000000000e+00 0.0000000000000000e+00  5.5449338595165480e+00 -5.9739062083246808e-02 0.0000000000000000e+00  5.5018124124803256e+00 2.1707993810847429e-03 0.0000000000000000e+00  5.4159573719599789e+00 9.9315498207476788e-02 0.0000000000000000e+00  5.2889826797198127e+00 1.8988528340043731e-01 0.0000000000000000e+00  5.1296554789399460e+00 2.5616799286392766e-01 0.0000000000000000e+00  4.9508949250598446e+00 2.9287371881897806e-01 0.0000000000000000e+00  4.7667850278557857e+00 3.0065246116602307e-01 0.0000000000000000e+00  4.5909002492244069e+00 2.8265731163197111e-01 0.0000000000000000e+00  4.4355376250825262e+00 2.4280054328656644e-01 0.0000000000000000e+00  4.3112722866088795e+00 1.8495923831542685e-01 0.0000000000000000e+00  4.2269595492038281e+00 1.1262711281768657e-01 0.0000000000000000e+00  4.1898318715680940e+00 2.8807545145614170e-02 0.0000000000000000e+00  4.2057154125165495e+00 -6.3965374934973424e-02 0.0000000000000000e+00  4.2791225285209409e+00 -1.6351319711465834e-01 0.0000000000000000e+00  4.4133859496892303e+00 -2.6785986834312880e-01 0.0000000000000000e+00  4.6107074404823392e+00 -3.7507460442803303e-01 0.0000000000000000e+00  4.8720817538051904e+00 -4.8311623471586468e-01 0.0000000000000000e+00  5.1972299511608320e+00 -5.8967298021963255e-01 0.0000000000000000e+00  5.5843987359628668e+00 -6.9195589321988804e-01 0.0000000000000000e+00  6.0300196631674545e+00 -7.8650679032491300e-01 0.0000000000000000e+00  6.5283885160272552e+00 -8.6901264439094794e-01 0.0000000000000000e+00  7.0712395245334791e+00 -9.3410100683907404e-01 0.0000000000000000e+00  7.6472385533596707e+00 -9.7519043226096236e-01 0.0000000000000000e+00  8.2415141217145802e+00 -9.8447875163593612e-01 0.0000000000000000e+00  8.8353567312596812e+00 -9.5323891387161341e-01 0.0000000000000000e+00  9.4062864616067596e+00 -8.7261906899688879e-01 0.0000000000000000e+00  9.9288071106246676e+00 -7.3552412842142434e-01 0.0000000000000000e+00  1.0376126084619470e+01 -5.4048917005550012e-01 0.0000000000000000e+00  1.0724313686007028e+01 -2.9918825449718661e-01 0.0000000000000000e+00  1.0958257647653742e+01 -5.0769189748771863e-02 0.0000000000000000e+00  1.1080104945969184e+01 1.1228256896741307e-01 0.0000000000000000e+00  1.1111402899726963e+01 0.0000000000000000e+00 0.0000000000000000e+00  7.0710666914146616e+00 0.0000000000000000e+00 0.0000000000000000e+00  7.0320443061836917e+00 -1.0043065069410308e-02 0.0000000000000000e+00  6.9279418181661914e+00 1.0029315966528668e-01 0.0000000000000000e+00  6.7714622882734501e+00 2.4206849636906913e-01 0.0000000000000000e+00  6.5749061245663265e+00 3.6838595921733525e-01 0.0000000000000000e+00  6.3515612833450135e+00 4.5778619066487969e-01 0.0000000000000000e+00  6.1159787237760499e+00 5.0330916087914812e-01 0.0000000000000000e+00  5.8828567023595850e+00 5.0559726119297399e-01 0.0000000000000000e+00  5.6661839952921458e+00 4.6882401111136573e-01 0.0000000000000000e+00  5.4786148779201529e+00 3.9843352185242736e-01 0.0000000000000000e+00  5.3312721271929062e+00 2.9999830297167823e-01 0.0000000000000000e+00  5.2335734170082411e+00 1.7868004089746906e-01 0.0000000000000000e+00  5.1933695940064819e+00 3.9024203488755980e-02 0.0000000000000000e+00  5.2170286297738571e+00 -1.1502846477907683e-01 0.0000000000000000e+00  5.3095886525531881e+00 -2.8001213784969353e-01 0.0000000000000000e+00  5.4747544745551853e+00 -4.5272863937928409e-01 0.0000000000000000e+00  5.7149894731164661e+00 -6.3002454405135988e-01 0.0000000000000000e+00  6.0314178370415430e+00 -8.0856324354887144e-01 0.0000000000000000e+00  6.4237563533094812e+00 -9.8457909607297256e-01 0.0000000000000000e+00  6.8900568437794707e+00 -1.1535776913291489e+00 0.0000000000000000e+00  7.4264274443871292e+00 -1.3100678011185269e+00 0.0000000000000000e+00  8.0267045675357895e+00 -1.4473021632758438e+00 0.0000000000000000e+00  8.6820919076443577e+00 -1.5570146612367675e+00 0.0000000000000000e+00  9.3806942650562188e+00 -1.6292789280254487e+00 0.0000000000000000e+00  1.0107116953992939e+01 -1.6525980331816179e+00 0.0000000000000000e+00  1.0842311464894239e+01 -1.6144279989016979e+00 0.0000000000000000e+00  1.1563668752820853e+01 -1.5024482298618995e+00 0.0000000000000000e+00  1.2245587492943772e+01 -1.3072228369165841e+00 0.0000000000000000e+00  1.2860608101794913e+01 -1.0272287625557313e+00 0.0000000000000000e+00  1.3381770461009770e+01 -6.7774100904737444e-01 0.0000000000000000e+00  1.3784431955143415e+01 -3.0596986473812804e-01 0.0000000000000000e+00  1.4047091995813258e+01 -1.5182521085600175e-02 0.0000000000000000e+00  1.4142133382829323e+01 0.0000000000000000e+00 0.0000000000000000e+00  8.3146948055146943e+00 0.0000000000000000e+00 0.0000000000000000e+00  8.2500584704392583e+00 8.7696828124413845e-02 0.0000000000000000e+00  8.0883246097262127e+00 2.6607337005662418e-01 0.0000000000000000e+00  7.8630925892503072e+00 4.5610950323174815e-01 0.0000000000000000e+00  7.5982476990214201e+00 6.1401022925946391e-01 0.0000000000000000e+00  7.3128024470946178e+00 7.1913068330591434e-01 0.0000000000000000e+00  7.0236122188005714e+00 7.6501184177630321e-01 0.0000000000000000e+00  6.7459438638024460e+00 7.5313227187593768e-01 0.0000000000000000e+00  6.4936948797994809e+00 6.8889378722924599e-01 0.0000000000000000e+00  6.2791871920404558e+00 5.7924305815384436e-01 0.0000000000000000e+00  6.1132815788866788e+00 4.3134798861925860e-01 0.0000000000000000e+00  6.0052417858556186e+00 2.5194931848601892e-01 0.0000000000000000e+00  5.9628595312850052e+00 4.7086878711987606e-02 0.0000000000000000e+00  5.9925596249370541e+00 -1.7791073847013217e-01 0.0000000000000000e+00  6.0994564841644490e+00 -4.1826788216836958e-01 0.0000000000000000e+00  6.2873723594135917e+00 -6.6950998234635162e-01 0.0000000000000000e+00  6.5588478159208981e+00 -9.2719140973067771e-01 0.0000000000000000e+00  6.9151384843609662e+00 -1.1866111906694792e+00 0.0000000000000000e+00  7.3560366846634810e+00 -1.4424659215793614e+00 0.0000000000000000e+00  7.8797019197406790e+00 -1.6884960622931833e+00 0.0000000000000000e+00  8.4823760028730160e+00 -1.9171404565856864e+00 0.0000000000000000e+00  9.1581365627954501e+00 -2.1192192810433532e+00 0.0000000000000000e+00  9.8985314206362833e+00 -2.2836374271803814e+00 0.0000000000000000e+00  1.0692239249786081e+01 -2.3972633252791362e+00 0.0000000000000000e+00  1.1524688065598529e+01 -2.4451114047097011e+00 0.0000000000000000e+00  1.2377901633113940e+01 -2.4110443696064494e+00 0.0000000000000000e+00  1.3230410219080234e+01 -2.2793247338227252e+00 0.0000000000000000e+00  1.4057265814424696e+01 -2.0376731151477401e+00 0.0000000000000000e+00  1.4830106167853028e+01 -1.6825840842995188e+00 0.0000000000000000e+00  1.5517255047713045e+01 -1.2280873119270526e+00 0.0000000000000000e+00  1.6081702580658991e+01 -7.1941764482410520e-01 0.0000000000000000e+00  1.6476410711138588e+01 -2.5261147782150589e-01 0.0000000000000000e+00  1.6629389611029389e+01 0.0000000000000000e+00 0.0000000000000000e+00  9.2387938611733507e+00 0.0000000000000000e+00 0.0000000000000000e+00  9.1532813628581629e+00 2.2741506524662861e-01 0.0000000000000000e+00  8.9431518841973254e+00 4.9304667329302299e-01 0.0000000000000000e+00  8.6587843203704828e+00 7.3586804618948343e-01 0.0000000000000000e+00  8.3344370057755217e+00 9.2171703518156356e-01 0.0000000000000000e+00  7.9948818103544319e+00 1.0350855059438560e+00 0.0000000000000000e+00  7.6594869201279652e+00 1.0724973270781362e+00 0.0000000000000000e+00  7.3442432501985841e+00 1.0375117890377328e+00 0.0000000000000000e+00  7.0627944700228884e+00 9.3727820932679495e-01 0.0000000000000000e+00  6.8268502735212540e+00 7.8035768811777328e-01 0.0000000000000000e+00  6.6465548930429970e+00 5.7546038033130142e-01 0.0000000000000000e+00  6.5305863172487504e+00 3.3078154219744477e-01 0.0000000000000000e+00  6.4862382973720845e+00 5.3727788822398086e-02 0.0000000000000000e+00  6.5196213301939165e+00 -2.4908825287829373e-01 0.0000000000000000e+00  6.6356251095533931e+00 -5.7165359787899483e-01 0.0000000000000000e+00  6.8379707853608336e+00 -9.0828331685868813e-01 0.0000000000000000e+00  7.1291968544081126e+00 -1.2532906190389927e+00 0.0000000000000000e+00  7.5106412930555191e+00 -1.6006447282330245e+00 0.0000000000000000e+00  7.9822978304792720e+00 -1.9435747887926467e+00 0.0000000000000000e+00  8.5426223227138198e+00 -2.2741362730313766e+00 0.0000000000000000e+00  9.1883669810358217e+00 -2.5828292371038533e+00 0.0000000000000000e+00  9.9143232966928707e+00 -2.8582188702299192e+00 0.0000000000000000e+00  1.0712997205896482e+01 -3.0866221928148629e+00 0.0000000000000000e+00  1.1574329734985810e+01 -3.2519837782586687e+00 0.0000000000000000e+00  1.2485320967088855e+01 -3.3360965565041925e+00 0.0000000000000000e+00  1.3429739375903830e+01 -3.3193537426971047e+00 0.0000000000000000e+00  1.4387668550023877e+01 -3.1823327643448378e+00 0.0000000000000000e+00  1.5334847724229959e+01 -2.9087508996121785e+00 0.0000000000000000e+00  1.6241568415364370e+01 -2.4903334873625784e+00 0.0000000000000000e+00  1.7070633332550312e+01 -1.9343473023074809e+00 0.0000000000000000e+00  1.7772538025584346e+01 -1.2745498050275412e+00 0.0000000000000000e+00  1.8277394025322796e+01 -5.8558673379261472e-01 0.0000000000000000e+00  1.8477587722346701e+01 0.0000000000000000e+00 0.0000000000000000e+00  9.8078512499224075e+00 0.0000000000000000e+00 0.0000000000000000e+00  9.7072046595924544e+00 4.0008845795046233e-01 0.0000000000000000e+00  9.4610990658945315e+00 7.6918435060161028e-01 0.0000000000000000e+00  9.1320687596681509e+00 1.0692754891315810e+00 0.0000000000000000e+00  8.7624055249691999e+00 1.2804029380017128e+00 0.0000000000000000e+00  8.3816678504524837e+00 1.3956548179993566e+00 0.0000000000000000e+00  8.0115001102931984e+00 1.4168148496090807e+00 0.0000000000000000e+00  7.6685641478897155e+00 1.3508406049985049e+00 0.0000000000000000e+00  7.3661973290356189e+00 1.2072757728525796e+00 0.0000000000000000e+00  7.1153906748427334e+00 9.9653220251981600e-01 0.0000000000000000e+00  6.9253874742236485e+00 7.2886766754415611e-01 0.0000000000000000e+00  6.8040276620442404e+00 4.1382823786482176e-01 0.0000000000000000e+00  6.7578972955882524e+00 6.0039721708452128e-02 0.0000000000000000e+00  6.7925247830107098e+00 -3.2474887028645921e-01 0.0000000000000000e+00  6.9124095684798998e+00 -7.3344075677624743e-01 0.0000000000000000e+00  7.1210157862418475e+00 -1.1592607018432048e+00 0.0000000000000000e+00  7.4208151429918869e+00 -1.5954127418866355e+00 0.0000000000000000e+00  7.8132132016842100e+00 -2.0346718708703690e+00 0.0000000000000000e+00  8.2984474219214963e+00 -2.4689515333558294e+00 0.0000000000000000e+00  8.8754176371560547e+00 -2.8888166808046378e+00 0.0000000000000000e+00  9.5415906065043021e+00 -3.2830553252469303e+00 0.0000000000000000e+00  1.0292745371704692e+01 -3.6382526143769289e+00 0.0000000000000000e+00  1.1122664049472581e+01 -3.9384432855003069e+00 0.0000000000000000e+00  1.2022895710531337e+01 -4.1649581195342478e+00 0.0000000000000000e+00  1.2982301392424501e+01 -4.2965849787861048e+00 0.0000000000000000e+00  1.3986569431174166e+01 -4.3102306726233719e+00 0.0000000000000000e+00  1.5017371213145749e+01 -4.1822519676308243e+00 0.0000000000000000e+00  1.6051052860338132e+01 -3.8909252211186485e+00 0.0000000000000000e+00  1.7056462107052198e+01 -3.4202896488228096e+00 0.0000000000000000e+00  1.7991279723486542e+01 -2.7658509044504296e+00 0.0000000000000000e+00  1.8795482519185740e+01 -1.9423280970582704e+00 0.0000000000000000e+00  1.9381403670117312e+01 -9.9303723206339045e-01 0.0000000000000000e+00  1.9615702499844815e+01 0.0000000000000000e+00 0.0000000000000000e+00  9.9999984154432902e+00 0.0000000000000000e+00 0.0000000000000000e+00  9.8903506525470597e+00 5.9517973811404590e-01 0.0000000000000000e+00  9.6223611713384454e+00 1.0792624772799553e+00 0.0000000000000000e+00  9.2659505466162635e+00 1.4400104697850831e+00 0.0000000000000000e+00  8.8686084048845615e+00 1.6745075046237188e+00 0.0000000000000000e+00  8.4631744140964891e+00 1.7868310772165976e+00 0.0000000000000000e+00  8.0728452324225604e+00 1.7857905419269300e+00 0.0000000000000000e+00  7.7146832383485684e+00 1.6828620842861939e+00 0.0000000000000000e+00  7.4016120951219229e+00 1.4906134326684963e+00 0.0000000000000000e+00  7.1438378715916553e+00 1.2215730553324271e+00 0.0000000000000000e+00  6.9496684137270162e+00 8.8759487513880542e-01 0.0000000000000000e+00  6.8259928509346297e+00 4.9949819540136703e-01 0.0000000000000000e+00  6.7786024991149008e+00 6.6988522813103454e-02 0.0000000000000000e+00  6.8123322097722507e+00 -4.0121655413720597e-01 0.0000000000000000e+00  6.9311639236675040e+00 -8.9709782468273036e-01 0.0000000000000000e+00  7.1382472577264915e+00 -1.4129745505731119e+00 0.0000000000000000e+00  7.4359020577086179e+00 -1.9411054668280237e+00 0.0000000000000000e+00  7.8255900224850414e+00 -2.4732624195027268e+00 0.0000000000000000e+00  8.3077894