<?xml version="1.0"?>
<VTKFile type="UnstructuredGrid"  version="0.1"  >
<UnstructuredGrid>
<Piece  NumberOfPoints="16641" NumberOfCells="32768">
<Points>
<DataArray  type="Float64"  NumberOfComponents="3"  format="ascii">0 0 0  0.0078125 0 0  0.015625 0 0  0.0234375 0 0  0.03125 0 0  0.0390625 0 0  0.046875 0 0  0.0546875 0 0  0.0625 0 0  0.0703125 0 0  0.078125 0 0  0.0859375 0 0  0.09375 0 0  0.1015625 0 0  0.109375 0 0  0.1171875 0 0  0.125 0 0  0.1328125 0 0  0.140625 0 0  0.1484375 0 0  0.15625 0 0  0.1640625 0 0  0.171875 0 0  0.1796875 0 0  0.1875 0 0  0.1953125 0 0  0.203125 0 0  0.2109375 0 0  0.21875 0 0  0.2265625 0 0  0.234375 0 0  0.2421875 0 0  0.25 0 0  0.2578125 0 0  0.265625 0 0  0.2734375 0 0  0.28125 0 0  0.2890625 0 0  0.296875 0 0  0.3046875 0 0  0.3125 0 0  0.3203125 0 0  0.328125 0 0  0.3359375 0 0  0.34375 0 0  0.3515625 0 0  0.359375 0 0  0.3671875 0 0  0.375 0 0  0.3828125 0 0  0.390625 0 0  0.3984375 0 0  0.40625 0 0  0.4140625 0 0  0.421875 0 0  0.4296875 0 0  0.4375 0 0  0.4453125 0 0  0.453125 0 0  0.4609375 0 0  0.46875 0 0  0.4765625 0 0  0.484375 0 0  0.4921875 0 0  0.5 0 0  0.5078125 0 0  0.515625 0 0  0.5234375 0 0  0.53125 0 0  0.5390625 0 0  0.546875 0 0  0.5546875 0 0  0.5625 0 0  0.5703125 0 0  0.578125 0 0  0.5859375 0 0  0.59375 0 0  0.6015625 0 0  0.609375 0 0  0.6171875 0 0  0.625 0 0  0.6328125 0 0  0.640625 0 0  0.6484375 0 0  0.65625 0 0  0.6640625 0 0  0.671875 0 0  0.6796875 0 0  0.6875 0 0  0.6953125 0 0  0.703125 0 0  0.7109375 0 0  0.71875 0 0  0.7265625 0 0  0.734375 0 0  0.7421875 0 0  0.75 0 0  0.7578125 0 0  0.765625 0 0  0.7734375 0 0  0.78125 0 0  0.7890625 0 0  0.796875 0 0  0.8046875 0 0  0.8125 0 0  0.8203125 0 0  0.828125 0 0  0.8359375 0 0  0.84375 0 0  0.8515625 0 0  0.859375 0 0  0.8671875 0 0  0.875 0 0  0.8828125 0 0  0.890625 0 0  0.8984375 0 0  0.90625 0 0  0.9140625 0 0  0.921875 0 0  0.9296875 0 0  0.9375 0 0  0.9453125 0 0  0.953125 0 0  0.9609375 0 0  0.96875 0 0  0.9765625 0 0  0.984375 0 0  0.9921875 0 0  1 0 0  0 0.0078125 0  0.0078125 0.0078125 0  0.015625 0.0078125 0  0.0234375 0.0078125 0  0.03125 0.0078125 0  0.0390625 0.0078125 0  0.046875 0.0078125 0  0.0546875 0.0078125 0  0.0625 0.0078125 0  0.0703125 0.0078125 0  0.078125 0.0078125 0  0.0859375 0.0078125 0  0.09375 0.0078125 0  0.1015625 0.0078125 0  0.109375 0.0078125 0  0.1171875 0.0078125 0  0.125 0.0078125 0  0.1328125 0.0078125 0  0.140625 0.0078125 0  0.1484375 0.0078125 0  0.15625 0.0078125 0  0.1640625 0.0078125 0  0.171875 0.0078125 0  0.1796875 0.0078125 0  0.1875 0.0078125 0  0.1953125 0.0078125 0  0.203125 0.0078125 0  0.2109375 0.0078125 0  0.21875 0.0078125 0  0.2265625 0.0078125 0  0.234375 0.0078125 0  0.2421875 0.0078125 0  0.25 0.0078125 0  0.2578125 0.0078125 0  0.265625 0.0078125 0  0.2734375 0.0078125 0  0.28125 0.0078125 0  0.2890625 0.0078125 0  0.296875 0.0078125 0  0.3046875 0.0078125 0  0.3125 0.0078125 0  0.3203125 0.0078125 0  0.328125 0.0078125 0  0.3359375 0.0078125 0  0.34375 0.0078125 0  0.3515625 0.0078125 0  0.359375 0.0078125 0  0.3671875 0.0078125 0  0.375 0.0078125 0  0.3828125 0.0078125 0  0.390625 0.0078125 0  0.3984375 0.0078125 0  0.40625 0.0078125 0  0.4140625 0.0078125 0  0.421875 0.0078125 0  0.4296875 0.0078125 0  0.4375 0.0078125 0  0.4453125 0.0078125 0  0.453125 0.0078125 0  0.4609375 0.0078125 0  0.46875 0.0078125 0  0.4765625 0.0078125 0  0.484375 0.0078125 0  0.4921875 0.0078125 0  0.5 0.0078125 0  0.5078125 0.0078125 0  0.515625 0.0078125 0  0.5234375 0.0078125 0  0.53125 0.0078125 0  0.5390625 0.0078125 0  0.546875 0.0078125 0  0.5546875 0.0078125 0  0.5625 0.0078125 0  0.5703125 0.0078125 0  0.578125 0.0078125 0  0.5859375 0.0078125 0  0.59375 0.0078125 0  0.6015625 0.0078125 0  0.609375 0.0078125 0  0.6171875 0.0078125 0  0.625 0.0078125 0  0.6328125 0.0078125 0  0.640625 0.0078125 0  0.6484375 0.0078125 0  0.65625 0.0078125 0  0.6640625 0.0078125 0  0.671875 0.0078125 0  0.6796875 0.0078125 0  0.6875 0.0078125 0  0.6953125 0.0078125 0  0.703125 0.0078125 0  0.7109375 0.0078125 0  0.71875 0.0078125 0  0.7265625 0.0078125 0  0.734375 0.0078125 0  0.7421875 0.0078125 0  0.75 0.0078125 0  0.7578125 0.0078125 0  0.765625 0.0078125 0  0.7734375 0.0078125 0  0.78125 0.0078125 0  0.7890625 0.0078125 0  0.796875 0.0078125 0  0.8046875 0.0078125 0  0.8125 0.0078125 0  0.8203125 0.0078125 0  0.828125 0.0078125 0  0.8359375 0.0078125 0  0.84375 0.0078125 0  0.8515625 0.0078125 0  0.859375 0.0078125 0  0.8671875 0.0078125 0  0.875 0.0078125 0  0.8828125 0.0078125 0  0.890625 0.0078125 0  0.8984375 0.0078125 0  0.90625 0.0078125 0  0.9140625 0.0078125 0  0.921875 0.0078125 0  0.9296875 0.0078125 0  0.9375 0.0078125 0  0.9453125 0.0078125 0  0.953125 0.0078125 0  0.9609375 0.0078125 0  0.96875 0.0078125 0  0.9765625 0.0078125 0  0.984375 0.0078125 0  0.9921875 0.0078125 0  1 0.0078125 0  0 0.015625 0  0.0078125 0.015625 0  0.015625 0.015625 0  0.0234375 0.015625 0  0.03125 0.015625 0  0.0390625 0.015625 0  0.046875 0.015625 0  0.0546875 0.015625 0  0.0625 0.015625 0  0.0703125 0.015625 0  0.078125 0.015625 0  0.0859375 0.015625 0  0.09375 0.015625 0  0.1015625 0.015625 0  0.109375 0.015625 0  0.1171875 0.015625 0  0.125 0.015625 0  0.1328125 0.015625 0  0.140625 0.015625 0  0.1484375 0.015625 0  0.15625 0.015625 0  0.1640625 0.015625 0  0.171875 0.015625 0  0.1796875 0.015625 0  0.1875 0.015625 0  0.1953125 0.015625 0  0.203125 0.015625 0  0.2109375 0.015625 0  0.21875 0.015625 0  0.2265625 0.015625 0  0.234375 0.015625 0  0.2421875 0.015625 0  0.25 0.015625 0  0.2578125 0.015625 0  0.265625 0.015625 0  0.2734375 0.015625 0  0.28125 0.015625 0  0.2890625 0.015625 0  0.296875 0.015625 0  0.3046875 0.015625 0  0.3125 0.015625 0  0.3203125 0.015625 0  0.328125 0.015625 0  0.3359375 0.015625 0  0.34375 0.015625 0  0.3515625 0.015625 0  0.359375 0.015625 0  0.3671875 0.015625 0  0.375 0.015625 0  0.3828125 0.015625 0  0.390625 0.015625 0  0.3984375 0.015625 0  0.40625 0.015625 0  0.4140625 0.015625 0  0.421875 0.015625 0  0.4296875 0.015625 0  0.4375 0.015625 0  0.4453125 0.015625 0  0.453125 0.015625 0  0.4609375 0.015625 0  0.46875 0.015625 0  0.4765625 0.015625 0  0.484375 0.015625 0  0.4921875 0.015625 0  0.5 0.015625 0  0.5078125 0.015625 0  0.515625 0.015625 0  0.5234375 0.015625 0  0.53125 0.015625 0  0.5390625 0.015625 0  0.546875 0.015625 0  0.5546875 0.015625 0  0.5625 0.015625 0  0.5703125 0.015625 0  0.578125 0.015625 0  0.5859375 0.015625 0  0.59375 0.015625 0  0.6015625 0.015625 0  0.609375 0.015625 0  0.6171875 0.015625 0  0.625 0.015625 0  0.6328125 0.015625 0  0.640625 0.015625 0  0.6484375 0.015625 0  0.65625 0.015625 0  0.6640625 0.015625 0  0.671875 0.015625 0  0.6796875 0.015625 0  0.6875 0.015625 0  0.6953125 0.015625 0  0.703125 0.015625 0  0.7109375 0.015625 0  0.71875 0.015625 0  0.7265625 0.015625 0  0.734375 0.015625 0  0.7421875 0.015625 0  0.75 0.015625 0  0.7578125 0.015625 0  0.765625 0.015625 0  0.7734375 0.015625 0  0.78125 0.015625 0  0.7890625 0.015625 0  0.796875 0.015625 0  0.8046875 0.015625 0  0.8125 0.015625 0  0.8203125 0.015625 0  0.828125 0.015625 0  0.8359375 0.015625 0  0.84375 0.015625 0  0.8515625 0.015625 0  0.859375 0.015625 0  0.8671875 0.015625 0  0.875 0.015625 0  0.8828125 0.015625 0  0.890625 0.015625 0  0.8984375 0.015625 0  0.90625 0.015625 0  0.9140625 0.015625 0  0.921875 0.015625 0  0.9296875 0.015625 0  0.9375 0.015625 0  0.9453125 0.015625 0  0.953125 0.015625 0  0.9609375 0.015625 0  0.96875 0.015625 0  0.9765625 0.015625 0  0.984375 0.015625 0  0.9921875 0.015625 0  1 0.015625 0  0 0.0234375 0  0.0078125 0.0234375 0  0.015625 0.0234375 0  0.0234375 0.0234375 0  0.03125 0.0234375 0  0.0390625 0.0234375 0  0.046875 0.0234375 0  0.0546875 0.0234375 0  0.0625 0.0234375 0  0.0703125 0.0234375 0  0.078125 0.0234375 0  0.0859375 0.0234375 0  0.09375 0.0234375 0  0.1015625 0.0234375 0  0.109375 0.0234375 0  0.1171875 0.0234375 0  0.125 0.0234375 0  0.1328125 0.0234375 0  0.140625 0.0234375 0  0.1484375 0.0234375 0  0.15625 0.0234375 0  0.1640625 0.0234375 0  0.171875 0.0234375 0  0.1796875 0.0234375 0  0.1875 0.0234375 0  0.1953125 0.0234375 0  0.203125 0.0234375 0  0.2109375 0.0234375 0  0.21875 0.0234375 0  0.2265625 0.0234375 0  0.234375 0.0234375 0  0.2421875 0.0234375 0  0.25 0.0234375 0  0.2578125 0.0234375 0  0.265625 0.0234375 0  0.2734375 0.0234375 0  0.28125 0.0234375 0  0.2890625 0.0234375 0  0.296875 0.0234375 0  0.3046875 0.0234375 0  0.3125 0.0234375 0  0.3203125 0.0234375 0  0.328125 0.0234375 0  0.3359375 0.0234375 0  0.34375 0.0234375 0  0.3515625 0.0234375 0  0.359375 0.0234375 0  0.3671875 0.0234375 0  0.375 0.0234375 0  0.3828125 0.0234375 0  0.390625 0.0234375 0  0.3984375 0.0234375 0  0.40625 0.0234375 0  0.4140625 0.0234375 0  0.421875 0.0234375 0  0.4296875 0.0234375 0  0.4375 0.0234375 0  0.4453125 0.0234375 0  0.453125 0.0234375 0  0.4609375 0.0234375 0  0.46875 0.0234375 0  0.4765625 0.0234375 0  0.484375 0.0234375 0  0.4921875 0.0234375 0  0.5 0.0234375 0  0.5078125 0.0234375 0  0.515625 0.0234375 0  0.5234375 0.0234375 0  0.53125 0.0234375 0  0.5390625 0.0234375 0  0.546875 0.0234375 0  0.5546875 0.0234375 0  0.5625 0.0234375 0  0.5703125 0.0234375 0  0.578125 0.0234375 0  0.5859375 0.0234375 0  0.59375 0.0234375 0  0.6015625 0.0234375 0  0.609375 0.0234375 0  0.6171875 0.0234375 0  0.625 0.0234375 0  0.6328125 0.0234375 0  0.640625 0.0234375 0  0.6484375 0.0234375 0  0.65625 0.0234375 0  0.6640625 0.0234375 0  0.671875 0.0234375 0  0.6796875 0.0234375 0  0.6875 0.0234375 0  0.6953125 0.0234375 0  0.703125 0.0234375 0  0.7109375 0.0234375 0  0.71875 0.0234375 0  0.7265625 0.0234375 0  0.734375 0.0234375 0  0.7421875 0.0234375 0  0.75 0.0234375 0  0.7578125 0.0234375 0  0.765625 0.0234375 0  0.7734375 0.0234375 0  0.78125 0.0234375 0  0.7890625 0.0234375 0  0.796875 0.0234375 0  0.8046875 0.0234375 0  0.8125 0.0234375 0  0.8203125 0.0234375 0  0.828125 0.0234375 0  0.8359375 0.0234375 0  0.84375 0.0234375 0  0.8515625 0.0234375 0  0.859375 0.0234375 0  0.8671
[...]
<PointData  Vectors="f_34-0"> 
<DataArray  type="Float64"  Name="f_34-0"  NumberOfComponents="3" format="ascii">0.0000000000000000e+00 0.0000000000000000e+00 0.0000000000000000e+00  0.0000000000000000e+00 0.0000000000000000e+00 0.0000000000000000e+00  0.0000000000000000e+00 0.0000000000000000e+00 0.0000000000000000e+00  0.0000000000000000e+00 0.0000000000000000e+00 0.0000000000000000e+00  0.0000000000000000e+00 0.0000000000000000e+00 0.0000000000000000e+00  0.0000000000000000e+00 0.0000000000000000e+00 0.0000000000000000e+00  0.0000000000000000e+00 0.0000000000000000e+00 0.0000000000000000e+00  0.0000000000000000e+00 0.0000000000000000e+00 0.0000000000000000e+00  0.0000000000000000e+00 0.0000000000000000e+00 0.0000000000000000e+00  0.0000000000000000e+00 0.0000000000000000e+00 0.0000000000000000e+00  0.0000000000000000e+00 0.0000000000000000e+00 0.0000000000000000e+00  0.0000000000000000e+00 0.0000000000000000e+00 0.0000000000000000e+00  0.0000000000000000e+00 0.0000000000000000e+00 0.0000000000000000e+00  0.0000000000000000e+00 0.0000000000000000e+00 0.0000000000000000e+00  0.0000000000000000e+00 0.0000000000000000e+00 0.0000000000000000e+00  0.0000000000000000e+00 0.0000000000000000e+00 0.0000000000000000e+00  0.0000000000000000e+00 0.0000000000000000e+00 0.0000000000000000e+00  0.0000000000000000e+00 0.0000000000000000e+00 0.0000000000000000e+00  0.0000000000000000e+00 0.0000000000000000e+00 0.0000000000000000e+00  0.0000000000000000e+00 0.0000000000000000e+00 0.0000000000000000e+00  0.0000000000000000e+00 0.0000000000000000e+00 0.0000000000000000e+00  0.0000000000000000e+00 0.0000000000000000e+00 0.0000000000000000e+00  0.0000000000000000e+00 0.0000000000000000e+00 0.0000000000000000e+00  0.0000000000000000e+00 0.0000000000000000e+00 0.0000000000000000e+00  0.0000000000000000e+00 0.0000000000000000e+00 0.0000000000000000e+00  0.0000000000000000e+00 0.0000000000000000e+00 0.0000000000000000e+00  0.0000000000000000e+00 0.0000000000000000e+00 0.0000000000000000e+00  0.0000000000000000e+00 0.0000000000000000e+00 0.0000000000000000e+00  0.0000000000000000e+00 0.0000000000000000e+00 0.0000000000000000e+00  0.0000000000000000e+00 0.0000000000000000e+00 0.0000000000000000e+00  0.0000000000000000e+00 0.0000000000000000e+00 0.0000000000000000e+00  0.0000000000000000e+00 0.0000000000000000e+00 0.0000000000000000e+00  0.0000000000000000e+00 0.0000000000000000e+00 0.0000000000000000e+00  0.0000000000000000e+00 0.0000000000000000e+00 0.0000000000000000e+00  0.0000000000000000e+00 0.0000000000000000e+00 0.0000000000000000e+00  0.0000000000000000e+00 0.0000000000000000e+00 0.0000000000000000e+00  0.0000000000000000e+00 0.0000000000000000e+00 0.0000000000000000e+00  0.0000000000000000e+00 0.0000000000000000e+00 0.0000000000000000e+00  0.0000000000000000e+00 0.0000000000000000e+00 0.0000000000000000e+00  0.0000000000000000e+00 0.0000000000000000e+00 0.0000000000000000e+00  0.0000000000000000e+00 0.0000000000000000e+00 0.0000000000000000e+00  0.0000000000000000e+00 0.0000000000000000e+00 0.0000000000000000e+00  0.0000000000000000e+00 0.0000000000000000e+00 0.0000000000000000e+00  0.0000000000000000e+00 0.0000000000000000e+00 0.0000000000000000e+00  0.0000000000000000e+00 0.0000000000000000e+00 0.0000000000000000e+00  0.0000000000000000e+00 0.0000000000000000e+00 0.0000000000000000e+00  0.0000000000000000e+00 0.0000000000000000e+00 0.0000000000000000e+00  0.0000000000000000e+00 0.0000000000000000e+00 0.0000000000000000e+00  0.0000000000000000e+00 0.0000000000000000e+00 0.0000000000000000e+00  0.0000000000000000e+00 0.0000000000000000e+00 0.0000000000000000e+00  0.0000000000000000e+00 0.0000000000000000e+00 0.0000000000000000e+00  0.0000000000000000e+00 0.0000000000000000e+00 0.0000000000000000e+00  0.0000000000000000e+00 0.0000000000000000e+00 0.0000000000000000e+00  0.0000000000000000e+00 0.0000000000000000e+00 0.0000000000000000e+00  0.0000000000000000e+00 0.0000000000000000e+00 0.0000000000000000e+00  0.0000000000000000e+00 0.0000000000000000e+00 0.0000000000000000e+00  0.0000000000000000e+00 0.0000000000000000e+00 0.0000000000000000e+00  0.0000000000000000e+00 0.0000000000000000e+00 0.0000000000000000e+00  0.0000000000000000e+00 0.0000000000000000e+00 0.0000000000000000e+00  0.0000000000000000e+00 0.0000000000000000e+00 0.0000000000000000e+00  0.0000000000000000e+00 0.0000000000000000e+00 0.0000000000000000e+00  0.0000000000000000e+00 0.0000000000000000e+00 0.0000000000000000e+00  0.0000000000000000e+00 0.0000000000000000e+00 0.0000000000000000e+00  0.0000000000000000e+00 0.0000000000000000e+00 0.0000000000000000e+00  0.0000000000000000e+00 0.0000000000000000e+00 0.0000000000000000e+00  0.0000000000000000e+00 0.0000000000000000e+00 0.0000000000000000e+00  0.0000000000000000e+00 0.0000000000000000e+00 0.0000000000000000e+00  0.0000000000000000e+00 0.0000000000000000e+00 0.0000000000000000e+00  0.0000000000000000e+00 0.0000000000000000e+00 0.0000000000000000e+00  0.0000000000000000e+00 0.0000000000000000e+00 0.0000000000000000e+00  0.0000000000000000e+00 0.0000000000000000e+00 0.0000000000000000e+00  0.0000000000000000e+00 0.0000000000000000e+00 0.0000000000000000e+00  0.0000000000000000e+00 0.0000000000000000e+00 0.0000000000000000e+00  0.0000000000000000e+00 0.0000000000000000e+00 0.0000000000000000e+00  0.0000000000000000e+00 0.0000000000000000e+00 0.0000000000000000e+00  0.0000000000000000e+00 0.0000000000000000e+00 0.0000000000000000e+00  0.0000000000000000e+00 0.0000000000000000e+00 0.0000000000000000e+00  0.0000000000000000e+00 0.0000000000000000e+00 0.0000000000000000e+00  0.0000000000000000e+00 0.0000000000000000e+00 0.0000000000000000e+00  0.0000000000000000e+00 0.0000000000000000e+00 0.0000000000000000e+00  0.0000000000000000e+00 0.0000000000000000e+00 0.0000000000000000e+00  0.0000000000000000e+00 0.0000000000000000e+00 0.0000000000000000e+00  0.0000000000000000e+00 0.0000000000000000e+00 0.0000000000000000e+00  0.0000000000000000e+00 0.0000000000000000e+00 0.0000000000000000e+00  0.0000000000000000e+00 0.0000000000000000e+00 0.0000000000000000e+00  0.0000000000000000e+00 0.0000000000000000e+00 0.0000000000000000e+00  0.0000000000000000e+00 0.0000000000000000e+00 0.0000000000000000e+00  0.0000000000000000e+00 0.0000000000000000e+00 0.0000000000000000e+00  0.0000000000000000e+00 0.0000000000000000e+00 0.0000000000000000e+00  0.0000000000000000e+00 0.0000000000000000e+00 0.0000000000000000e+00  0.0000000000000000e+00 0.0000000000000000e+00 0.0000000000000000e+00  0.0000000000000000e+00 0.0000000000000000e+00 0.0000000000000000e+00  0.0000000000000000e+00 0.0000000000000000e+00 0.0000000000000000e+00  0.0000000000000000e+00 0.0000000000000000e+00 0.0000000000000000e+00  0.0000000000000000e+00 0.0000000000000000e+00 0.0000000000000000e+00  0.0000000000000000e+00 0.0000000000000000e+00 0.0000000000000000e+00  0.0000000000000000e+00 0.0000000000000000e+00 0.0000000000000000e+00  0.0000000000000000e+00 0.0000000000000000e+00 0.0000000000000000e+00  0.0000000000000000e+00 0.0000000000000000e+00 0.0000000000000000e+00  0.0000000000000000e+00 0.0000000000000000e+00 0.0000000000000000e+00  0.0000000000000000e+00 0.0000000000000000e+00 0.0000000000000000e+00  0.0000000000000000e+00 0.0000000000000000e+00 0.0000000000000000e+00  0.0000000000000000e+00 0.0000000000000000e+00 0.0000000000000000e+00  0.0000000000000000e+00 0.0000000000000000e+00 0.0000000000000000e+00  0.0000000000000000e+00 0.0000000000000000e+00 0.0000000000000000e+00  0.0000000000000000e+00 0.0000000000000000e+00 0.0000000000000000e+00  0.0000000000000000e+00 0.0000000000000000e+00 0.0000000000000000e+00  0.0000000000000000e+00 0.0000000000000000e+00 0.0000000000000000e+00  0.0000000000000000e+00 0.0000000000000000e+00 0.0000000000000000e+00  0.0000000000000000e+00 0.0000000000000000e+00 0.0000000000000000e+00  0.0000000000000000e+00 0.0000000000000000e+00 0.0000000000000000e+00  0.0000000000000000e+00 0.0000000000000000e+00 0.0000000000000000e+00  0.0000000000000000e+00 0.0000000000000000e+00 0.0000000000000000e+00  0.0000000000000000e+00 0.0000000000000000e+00 0.0000000000000000e+00  0.0000000000000000e+00 0.0000000000000000e+00 0.0000000000000000e+00  0.0000000000000000e+00 0.0000000000000000e+00 0.0000000000000000e+00  0.0000000000000000e+00 0.0000000000000000e+00 0.0000000000000000e+00  0.0000000000000000e+00 0.0000000000000000e+00 0.0000000000000000e+00  0.0000000000000000e+00 0.0000000000000000e+00 0.0000000000000000e+00  0.0000000000000000e+00 0.0000000000000000e+00 0.0000000000000000e+00  0.0000000000000000e+00 0.0000000000000000e+00 0.0000000000000000e+00  0.0000000000000000e+00 0.0000000000000000e+00 0.0000000000000000e+00  0.0000000000000000e+00 0.0000000000000000e+00 0.0000000000000000e+00  0.0000000000000000e+00 0.0000000000000000e+00 0.0000000000000000e+00  0.0000000000000000e+00 0.0000000000000000e+00 0.0000000000000000e+00  0.0000000000000000e+00 0.0000000000000000e+00 0.0000000000000000e+00  0.0000000000000000e+00 0.0000000000000000e+00 0.0000000000000000e+00  0.0000000000000000e+00 0.0000000000000000e+00 0.0000000000000000e+00  0.0000000000000000e+00 0.0000000000000000e+00 0.0000000000000000e+00  4.9067674295240560e-02 0.0000000000000000e+00 0.0000000000000000e+00  4.9175920166435821e-02 -1.1225648028059247e-04 0.0000000000000000e+00  4.9483079183786777e-02 -2.1029275471293285e-04 0.0000000000000000e+00  4.9929579924329719e-02 -2.6481146762126137e-04 0.0000000000000000e+00  5.0445721837718359e-02 -2.8597859809886334e-04 0.0000000000000000e+00  5.0980761527898856e-02 -2.8414496963872289e-04 0.0000000000000000e+00  5.1498528627314376e-02 -2.6668022987577904e-04 0.0000000000000000e+00  5.1975089018944778e-02 -2.3967998269781713e-04 0.0000000000000000e+00  5.2395413227404188e-02 -2.0667373133393584e-04 0.0000000000000000e+00  5.2750074241178189e-02 -1.7032513368825104e-04 0.0000000000000000e+00  5.3034376722287890e-02 -1.3236464726892671e-04 0.0000000000000000e+00  5.3247045288895130e-02 -9.4319347474642066e-05 0.0000000000000000e+00  5.3388341590395724e-02 -5.7685402133183633e-05 0.0000000000000000e+00  5.3460506803835676e-02 -2.2732909010006249e-05 0.0000000000000000e+00  5.3467186145171867e-02 9.9569827425793112e-06 0.0000000000000000e+00  5.3412605913832734e-02 4.0115847838747869e-05 0.0000000000000000e+00  5.3301689049222209e-02 6.7852951624046803e-05 0.0000000000000000e+00  5.3139697063299414e-02 9.2767998948941715e-05 0.0000000000000000e+00  5.2932089290747407e-02 1.1464308667932979e-04 0.0000000000000000e+00  5.2684261699085723e-02 1.3369169775266773e-04 0.0000000000000000e+00  5.2401838090158255e-02 1.4985259010159697e-04 0.0000000000000000e+00  5.2090569717612917e-02 1.6317832414196524e-04 0.0000000000000000e+00  5.1756051280415230e-02 1.7357984178409177e-04 0.0000000000000000e+00  5.1403575588500165e-02 1.8133577429994379e-04 0.0000000000000000e+00  5.1038422758931418e-02 1.8638049440594561e-04 0.0000000000000000e+00  5.0666161420490630e-02 1.8882495966671844e-04 0.0000000000000000e+00  5.0291461463380129e-02 1.8902041351746192e-04 0.0000000000000000e+00  4.9918842118418502e-02 1.8701480925880593e-04 0.0000000000000000e+00  4.9552583420389124e-02 1.8275755451542126e-04 0.0000000000000000e+00  4.9196927076820086e-02 1.7620147051833484e-04 0.0000000000000000e+00  4.8855961297513649e-02 1.6759971416730043e-04 0.0000000000000000e+00  4.8533087847845297e-02 1.5749188740295467e-04 0.0000000000000000e+00  4.8231211474735455e-02 1.4590056499328620e-04 0.0000000000000000e+00  4.7953319100465165e-02 1.3264017039371257e-04 0.0000000000000000e+00  4.7701957783200702e-02 1.1819653495300640e-04 0.0000000000000000e+00  4.7479266479179154e-02 1.0303826267763928e-04 0.0000000000000000e+00  4.7287157462881022e-02 8.7242982546061794e-05 0.0000000000000000e+00  4.7127294989704215e-02 7.0701333673073912e-05 0.0000000000000000e+00  4.7000926974360389e-02 5.3553524361184051e-05 0.0000000000000000e+00  4.6908951907174451e-02 3.6176539865736399e-05 0.0000000000000000e+00  4.6851793643759375e-02 1.8770702238191471e-05 0.0000000000000000e+00  4.6829273485817460e-02 1.3609515355091549e-06 0.0000000000000000e+00  4.6841200642567499e-02 -1.6009847523451781e-05 0.0000000000000000e+00  4.6886444277838550e-02 -3.2663941185055540e-05 0.0000000000000000e+00  4.6963346877428654e-02 -4.8579539977372756e-05 0.0000000000000000e+00  4.7070297713107202e-02 -6.3212979461458273e-05 0.0000000000000000e+00  4.7204817486837705e-02 -7.6292314021661234e-05 0.0000000000000000e+00  4.7364460425900243e-02 -8.8162003842303063e-05 0.0000000000000000e+00  4.7546303360105693e-02 -9.8599866222700579e-05 0.0000000000000000e+00  4.7747359393563879e-02 -1.0763832833567931e-04 0.0000000000000000e+00  4.7963888784260812e-02 -1.1485033701815651e-04 0.0000000000000000e+00  4.8192087957064450e-02 -1.1990849720876986e-04 0.0000000000000000e+00  4.8428607448374870e-02 -1.2290622258570496e-04 0.0000000000000000e+00  4.8669977886743251e-02 -1.2399612392325214e-04 0.0000000000000000e+00  4.8913096381188639e-02 -1.2338405811847838e-04 0.0000000000000000e+00  4.9154378644969909e-02 -1.2093890950171601e-04 0.0000000000000000e+00  4.9390685609550830e-02 -1.1694932113510644e-04 0.0000000000000000e+00  4.9618755231543021e-02 -1.1161815034416449e-04 0.0000000000000000e+00  4.9836184123239514e-02 -1.0528691445081884e-04 0.0000000000000000e+00  5.0041507055430083e-02 -9.8314307708794027e-05 0.0000000000000000e+00  5.0233648082373676e-02 -9.1022241038366035e-05 0.0000000000000000e+00  5.0412475602919345e-02 -8.3933410455569067e-05 0.0000000000000000e+00  5.0578005942425557e-02 -7.7321917715472111e-05 0.0000000000000000e+00  5.0731375918001982e-02 -7.1520612608897224e-05 0.0000000000000000e+00  5.0874522964178492e-02 -6.6693105918867786e-05 0.0000000000000000e+00  5.1010289883351025e-02 -6.3353624765675895e-05 0.0000000000000000e+00  5.1142507179522428e-02 -6.2018776901402858e-05 0.0000000000000000e+00  5.1275476035018232e-02 -6.3099008876996157e-05 0.0000000000000000e+00  5.1414419737471670e-02 -6.7081904719600767e-05 0.0000000000000000e+00  5.1564829049513893e-02 -7.3914157219768370e-05 0.0000000000000000e+00  5.1732355782664836e-02 -8.3773772113259815e-05 0.0000000000000000e+00  5.1923089611837211e-02 -9.6993414972234023e-05 0.0000000000000000e+00  5.2143198856600667e-02 -1.1348207607965524e-04 0.0000000000000000e+00  5.2399260695581117e-02 -1.3313370700223523e-04 0.0000000000000000e+00  5.2697713228936065e-02 -1.5579615400650821e-04 0.0000000000000000e+00  5.3044518162417675e-02 -1.8149129909410068e-04 0.0000000000000000e+00  5.3445647033061476e-02 -2.1028956576098380e-04 0.0000000000000000e+00  5.3906722848610707e-02 -2.4197493883578776e-04 0.0000000000000000e+00  5.4432891819224366e-02 -2.7627980730927335e-04 0.0000000000000000e+00  5.5028721960564353e-02 -3.1285612773125469e-04 0.0000000000000000e+00  5.5697799972681532e-02 -3.5111187815105527e-04 0.0000000000000000e+00  5.6443469055677438e-02 -3.9073915628884778e-04 0.0000000000000000e+00  5.7268225363443032e-02 -4.3139321756948198e-04 0.0000000000000000e+00  5.8173567385735293e-02 -4.7273499278250886e-04 0.0000000000000000e+00  5.9160726722170293e-02 -5.1448532444056617e-04 0.0000000000000000e+00  6.0230031845262016e-02 -5.5605350187826273e-04 0.0000000000000000e+00  6.1380524057174285e-02 -5.9685886584536483e-04 0.0000000000000000e+00  6.2610852194663627e-02 -6.3665234584025533e-04 0.0000000000000000e+00  6.3919065057325489e-02 -6.7525644590847925e-04 0.0000000000000000e+00  6.5302410176083833e-02 -7.1239356971312473e-04 0.0000000000000000e+00  6.6757660376376926e-02 -7.4769082941835482e-04 0.0000000000000000e+00  6.8280316122815529e-02 -7.8079150208195769e-04 0.0000000000000000e+00  6.9865405908027242e-02 -8.1159051284859004e-04 0.0000000000000000e+00  7.1507457897247495e-02 -8.3955387198931088e-04 0.0000000000000000e+00  7.3200430431747482e-02 -8.6434426706268541e-04 0.0000000000000000e+00  7.4937884492306289e-02 -8.8586493286515078e-04 0.0000000000000000e+00  7.6713164073817633e-02 -9.0375140748025608e-04 0.0000000000000000e+00  7.8518641246486220e-02 -9.1745705275051305e-04 0.0000000000000000e+00  8.0346235861032136e-02 -9.2685055353167287e-04 0.0000000000000000e+00  8.2187937776928996e-02 -9.3184415187938443e-04 0.0000000000000000e+00  8.4034466689204973e-02 -9.3199207213217044e-04 0.0000000000000000e+00  8.5876220197268996e-02 -9.2729228911251943e-04 0.0000000000000000e+00  8.7703500476843263e-02 -9.1753398616943030e-04 0.0000000000000000e+00  8.9505774529343454e-02 -9.0222034297916744e-04 0.0000000000000000e+00  9.1272381868453267e-02 -8.8113505178087279e-04 0.0000000000000000e+00  9.2991733668537441e-02 -8.5400730468710774e-04 0.0000000000000000e+00  9.4651660228961376e-02 -8.2086396299211489e-04 0.0000000000000000e+00  9.6239596829444066e-02 -7.8136759494352548e-04 0.0000000000000000e+00  9.7742901815682598e-02 -7.3528308431476013e-04 0.0000000000000000e+00  9.9148553418558091e-02 -6.8243668332136512e-04 0.0000000000000000e+00  1.0044364758157778e-01 -6.2287085149318681e-04 0.0000000000000000e+00  1.0161524682822763e-01 -5.5650862225876984e-04 0.0000000000000000e+00  1.0265017863679464e-01 -4.8294034884761736e-04 0.0000000000000000e+00  1.0353494108564083e-01 -4.0217603671558507e-04 0.0000000000000000e+00  1.0425648110719932e-01 -3.1487187025121179e-04 0.0000000000000000e+00  1.0480238087956915e-01 -2.2148294304317489e-04 0.0000000000000000e+00  1.0516165806597967e-01 -1.2262482813485648e-04 0.0000000000000000e+00  1.0532511059727445e-01 -1.9360501650099699e-05 0.0000000000000000e+00  1.0528616037333338e-01 8.6974554673997797e-05 0.0000000000000000e+00  1.0504159693083953e-01 1.9475648093640851e-04 0.0000000000000000e+00  1.0459270856342243e-01 3.0077208766288909e-04 0.0000000000000000e+00  1.0394776087539601e-01 4.0049553289766573e-04 0.0000000000000000e+00  1.0312533109893912e-01 4.8777137045863595e-04 0.0000000000000000e+00  1.0215837931544770e-01 5.5387887041503340e-04 0.0000000000000000e+00  1.0109966865983946e-01 5.8554728397374519e-04 0.0000000000000000e+00  1.0003027549794630e-01 5.6352047580263706e-04 0.0000000000000000e+00  9.9072512807817079e-02 4.6159792527874453e-04 0.0000000000000000e+00  9.8384102623587516e-02 2.5123067268749416e-04 0.0000000000000000e+00  9.8135348590481120e-02 0.0000000000000000e+00 0.0000000000000000e+00  9.8017140265282951e-02 0.0000000000000000e+00 0.0000000000000000e+00  9.8225364188383235e-02 -4.1924145923677008e-04 0.0000000000000000e+00  9.8749292977521524e-02 -7.3627777367273528e-04 0.0000000000000000e+00  9.9477719740599227e-02 -9.2240743702897570e-04 0.0000000000000000e+00  1.0031645693942695e-01 -1.0006968841002012e-03 0.0000000000000000e+00  1.0118938973738480e-01 -9.9936865111222278e-04 0.0000000000000000e+00  1.0203901082980742e-01 -9.4269889983642603e-04 0.0000000000000000e+00  1.0282407486655400e-01 -8.4905259195371216e-04 0.0000000000000000e+00  1.0351660021984872e-01 -7.3236312216597664e-04 0.0000000000000000e+00  1.0409880738304417e-01 -6.0171459612021140e-04 0.0000000000000000e+00  1.0456021511318711e-01 -4.6429711206866182e-04 0.0000000000000000e+00  1.0489624078354515e-01 -3.2579090081456000e-04 0.0000000000000000e+00  1.0510697763902754e-01 -1.9002503085728187e-04 0.0000000000000000e+00  1.0519477541895805e-01 -6.0071155705710039e-05 0.0000000000000000e+00  1.0516507341927477e-01 6.2222267892978947e-05 0.0000000000000000e+00  1.0502515578647162e-01 1.7588678462882775e-04 0.0000000000000000e+00  1.0478290578388451e-01 2.8004810880876086e-04 0.0000000000000000e+00  1.0444750609441758e-01 3.7406851483276320e-04 0.0000000000000000e+00  1.0402867927194387e-01 4.5739888497258499e-04 0.0000000000000000e+00  1.0353614794412713e-01 5.2973790410467628e-04 0.0000000000000000e+00  1.0298016180188962e-01 5.9113829783514929e-04 0.0000000000000000e+00  1.0237100132111382e-01 6.4169259220534620e-04 0.0000000000000000e+00  1.0171899702318687e-01 6.8163136020363648e-04 0.0000000000000000e+00  1.0103396974249242e-01 7.1121157847451851e-04 0.0000000000000000e+00  1.0032562392922104e-01 7.3046123564878495e-04 