<?xml version="1.0"?>
<VTKFile type="UnstructuredGrid"  version="0.1"  >
<UnstructuredGrid>
<Piece  NumberOfPoints="23761" NumberOfCells="39749">
<Points>
<DataArray  type="Float64"  NumberOfComponents="3"  format="ascii">1 1 0  0.175292957959685 1 0  0 1 0  0 0.961558986449524 0  0 0.5604862565452906 0  0 0.08351738880530228 0  0 0 0  0.5824099185710206 0 0  0.7786664445695775 0 0  1 0 0  1 0.2653593132338428 0  1 0.6687662253941958 0  1 0.8394127714813772 0  1 0.9566323638958559 0  0.3174603174603174 0.8180135941747342 0  0.3224172591330514 0.8095238095238095 0  0.3212754259880581 0.7936507936507936 0  0.3174603174603174 0.7860633690473179 0  0.3119327435243212 0.7777777777777778 0  0.3015873015873016 0.7665986039325842 0  0.294832177354299 0.7619047619047619 0  0.2857142857142857 0.7560700886659691 0  0.2698412698412698 0.747972699377554 0  0.2669043582998595 0.746031746031746 0  0.253968253968254 0.7395437774765121 0  0.2380952380952381 0.7322939821704942 0  0.2222222222222222 0.7317881272147261 0  0.2063492063492063 0.7415824454351746 0  0.201643272932841 0.746031746031746 0  0.1904761904761905 0.7582874082533595 0  0.1865419085746575 0.7619047619047619 0  0.1746031746031746 0.7771532528992529 0  0.1738476691822168 0.7777777777777778 0  0.1647050470847257 0.7936507936507936 0  0.1587301587301587 0.8089813104685633 0  0.1428571428571428 0.8029943093677232 0  0.1321142240142371 0.7936507936507936 0  0.126984126984127 0.7879322007912879 0  0.119769893026587 0.7777777777777778 0  0.1208192507712199 0.7619047619047619 0  0.1258332409143814 0.746031746031746 0  0.126984126984127 0.7375087242620512 0  0.1275399167841687 0.7301587301587301 0  0.126984126984127 0.7246363570229141 0  0.125561129425354 0.7142857142857143 0  0.1181074189624623 0.6984126984126984 0  0.1111111111111111 0.6910495513735816 0  0.09523809523809523 0.6862488194038963 0  0.07936507936507936 0.6837945473004768 0  0.07320312086985815 0.6825396825396826 0  0.06349206349206349 0.6802912328366062 0  0.04761904761904762 0.6782083201228714 0  0.03174603174603174 0.6812655686252598 0  0.02894297201914328 0.6825396825396826 0  0.01587301587301587 0.6919140190217379 0  0.004562801203893802 0.6984126984126984 0  0.01559862919684167 0.7142857142857143 0  0.01587301587301587 0.7143635465174392 0  0.03174603174603174 0.7211917271741894 0  0.04761904761904762 0.7289868522140375 0  0.04937113600361963 0.7301587301587301 0  0.06349206349206349 0.7387741783523314 0  0.07179130220586562 0.746031746031746 0  0.07936507936507936 0.7566957303513079 0  0.08432343431294946 0.7619047619047619 0  0.08734160851407032 0.7777777777777778 0  0.07936507936507936 0.788220238747891 0  0.07658890301041299 0.7936507936507936 0  0.06349206349206349 0.8088630454465583 0  0.06294080850115891 0.8095238095238095 0  0.05252900034940785 0.8253968253968254 0  0.04957895879071043 0.8412698412698413 0  0.06349206349206349 0.8536824836198235 0  0.07372232714438665 0.8571428571428571 0  0.07936507936507936 0.8581144168927127 0  0.09523809523809523 0.8608390317051936 0  0.1111111111111111 0.8670671868125652 0  0.1178489516550749 0.873015873015873 0  0.1253024885457697 0.8888888888888888 0  0.1252343647226527 0.9047619047619048 0  0.1211859018952093 0.9206349206349206 0  0.1153394735563939 0.9365079365079365 0  0.1111111111111111 0.9474581006644176 0  0.1080020848992852 0.9523809523809523 0  0.09523809523809523 0.9673228353357223 0  0.0917476154510975 0.9682539682539683 0  0.07936507936507936 0.9722981063312585 0  0.06349206349206349 0.9744449289597725 0  0.04761904761904762 0.9793813859118002 0  0.04006479557285256 0.9841269841269841 0  0.03174603174603174 0.9924286118159057 0  0.1904761904761905 0.9875115297174124 0  0.1945325955329423 0.9841269841269841 0  0.2037982119683398 0.9682539682539683 0  0.203583478872619 0.9523809523809522 0  0.1990770526282201 0.9365079365079365 0  0.1924502562423545 0.9206349206349206 0  0.1904761904761905 0.9162588794544783 0  0.1856484222596172 0.9047619047619049 0  0.1807293695155161 0.8888888888888888 0  0.1774250368949914 0.873015873015873 0  0.1746031746031746 0.8607386904068113 0  0.1733323915957073 0.8571428571428571 0  0.1680256538838935 0.8412698412698413 0  0.1649783489984022 0.8253968253968254 0  0.1746031746031746 0.8148998889846126 0  0.1904761904761905 0.8142067513371901 0  0.2063492063492063 0.8117724130018922 0  0.2170468131028615 0.8095238095238095 0  0.2222222222222222 0.8084161690648528 0  0.2380952380952381 0.8077241990567403 0  0.2426166334245998 0.8095238095238095 0  0.253968253968254 0.8149725378006707 0  0.2665980014090125 0.8253968253968254 0  0.2698412698412698 0.8279767860002756 0  0.2857142857142857 0.8335591669765886 0  0.3015873015873016 0.8305701284051263 0  0.309966077621575 0.8253968253968254 0  0.01765636075608155 0.9365079365079365 0  0.01936633516492812 0.9206349206349206 0  0.01797530844110574 0.9047619047619048 0  0.01587301587301587 0.8962929673736939 0  0.01297540129958384 0.8888888888888888 0  5.266332407741611e-05 0.873015873015873 0  0.009953988987660083 0.9523809523809523 0  0.01587301587301587 0.9424836946337805 0  0.1998931700296994 0.4761904761904762 0  0.2016036630475187 0.4603174603174603 0  0.2008121246739336 0.4444444444444444 0  0.1971914887471277 0.4285714285714285 0  0.1904761904761905 0.4145112438601732 0  0.1895960567625712 0.4126984126984127 0  0.1792889574835199 0.3968253968253968 0  0.1746031746031746 0.3909120120593609 0  0.1659500150903921 0.3809523809523809 0  0.1587301587301587 0.3719921913355352 0  0.151798457511253 0.3650793650793651 0  0.1428571428571428 0.3553671206215639 0  0.1329036009739566 0.3492063492063492 0  0.126984126984127 0.3454388778740289 0  0.1111111111111111 0.3429423427017766 0  0.09523809523809523 0.3456899620766377 0  0.08094067573349763 0.3492063492063492 0  0.07936507936507936 0.3496856189331036 0  0.06349206349206349 0.3523472240504029 0  0.04761904761904762 0.35700178541009 0  0.03603407067510815 0.3650793650793651 0  0.03174603174603174 0.3683418928285296 0  0.01692702391285692 0.3809523809523809 0  0.01587301587301587 0.3816463837867716 0  0.003784984978464247 0.5714285714285714 0  0.01026439211316827 0.5873015873015873 0  0.01587301587301587 0.5959502934199767 0  0.02447533467159006 0.6031746031746031 0  0.03174603174603174 0.6088891186356324 0  0.04761904761904762 0.6111383413411713 0  0.05753058150505722 0.6031746031746031 0  0.06349206349206349 0.5961403420174656 0  0.06677227496196517 0.5873015873015873 0  0.06970599415984984 0.5714285714285714 0  0.06963423960691587 0.5555555555555556 0  0.06758381430635976 0.5396825396825397 0  0.06516857379397688 0.5238095238095238 0  0.06349206349206349 0.5128672579649479 0  0.06248170504094974 0.5079365079365079 0  0.05871162993545943 0.492063492063492 0  0.05714016941263282 0.4761904761904762 0  0.0604469710325587 0.4603174603174603 0  0.06349206349206349 0.453470024118778 0  0.07173933178451447 0.4444444444444444 0  0.07936507936507936 0.4400981816434985 0  0.09523809523809523 0.4425635246918558 0  0.09901211861176654 0.4444444444444444 0  0.1111111111111111 0.4492643488569973 0  0.125459324015529 0.4603174603174603 0  0.126984126984127 0.4620139293672067 0  0.1358983712507593 0.4761904761904762 0  0.1428571428571428 0.4902148669129022 0  0.1442361899928026 0.492063492063492 0  0.1587301587301587 0.5057790615817686 0  0.1746031746031746 0.5054295420360299 0  0.1904761904761905 0.4958263406215083 0  0.1937572577493221 0.492063492063492 0  0.2740047195233301 0.1587301587301587 0  0.2791836457576243 0.1428571428571428 0  0.2698412698412698 0.1293367923338641 0  0.253968253968254 0.1283533671866474 0  0.2380952380952381 0.1274600449308221 0  0.2353086045917152 0.126984126984127 0  0.2222222222222222 0.1253274802624256 0  0.2063492063492063 0.1223377890430537 0  0.1904761904761905 0.1198195693285908 0  0.1746031746031746 0.1194535543982614 0  0.1587301587301587 0.1232475565477096 0  0.1502146473105761 0.126984126984127 0  0.1428571428571428 0.1285520313526255 0  0.1411115454948038 0.126984126984127 0  0.1428571428571428 0.124775078519903 0  0.1527299391906574 0.1111111111111111 0  0.1587301587301587 0.1064319210232907 0  0.1679354901109883 0.09523809523809523 0  0.1746031746031746 0.08468696347990655 0  0.1770226707770026 0.07936507936507936 0  0.1847771300198122 0.06349206349206349 0  0.1904761904761905 0.06031653370387626 0  0.2063492063492063 0.05740854969333252 0  0.2222222222222222 0.05318725182477239 0  0.2312432272331587 0.04761904761904762 0  0.2380952380952381 0.04285588815659188 0  0.2463045053266562 0.03174603174603174 0  0.2532679017020888 0.01587301587301587 0  0.253968253968254 0.01169977784731085 0  0.01587301587301587 0.08584000567615678 0  0.03174603174603174 0.09334846314984473 0  0.03316899238484052 0.09523809523809523 0  0.0380787066580251 0.1111111111111111 0  0.03644537489443476 0.126984126984127 0  0.03174603174603174 0.1401611392059097 0  0.03074931505507994 0.1428571428571428 0  0.02467025090837427 0.1587301587301587 0  0.02195985973896115 0.1746031746031746 0  0.02299327395273516 0.1904761904761905 0  0.02625738885667057 0.2063492063492063 0  0.02990705911401851 0.2222222222222222 0  0.03174603174603174 0.2302957520638277 0  0.03510179144947025 0.2380952380952381 0  0.04761904761904762 0.2511280701250793 0  0.06349206349206349 0.2499179905173424 0  0.07936507936507936 0.2423672394529236 0  0.08850781059496862 0.2380952380952381 0  0.09523809523809523 0.2348030443899362 0  0.1111111111111111 0.2311124334268274 0  0.126984126984127 0.2317148478486909 0  0.1428571428571428 0.2340395426880645 0  0.1587301587301587 0.2356941137285287 0  0.1746031746031746 0.2352452477476828 0  0.1904761904761905 0.2310809993214912 0  0.2027621242224352 0.2222222222222222 0  0.2063492063492063 0.2186548124804752 0  0.214729727245977 0.2063492063492063 0  0.2222222222222222 0.1959098758259242 0  0.227057332737446 0.1904761904761905 0  0.2380952380952381 0.1810916086034079 0  0.2501418933482488 0.1746031746031746 0  0.2539682
[...]
<PointData  Scalars="f_133-1"> 
<DataArray  type="Float64"  Name="f_133-1"  format="ascii">0.0000000000000000e+00  0.0000000000000000e+00  0.0000000000000000e+00  0.0000000000000000e+00  0.0000000000000000e+00  0.0000000000000000e+00  0.0000000000000000e+00  0.0000000000000000e+00  0.0000000000000000e+00  0.0000000000000000e+00  0.0000000000000000e+00  0.0000000000000000e+00  0.0000000000000000e+00  0.0000000000000000e+00  2.9594309987269632e+01  2.3322978193437258e+01  1.3840105950452115e+01  1.6284582201133397e+00  -3.7454376901102724e+00  -1.2761932983280360e+01  -2.3474959797982635e+01  -2.9098545019375806e+01  -3.4835554215149635e+01  -3.6796469856958645e+01  -4.7764773133742381e+01  -7.1803914893476332e+01  -1.0957763135635642e+02  -1.1904444556668899e+02  -1.1758638504854542e+02  -1.0981919402939728e+02  -1.0789765010881483e+02  -1.0379261167073405e+02  -1.0333718973962335e+02  -1.0246338140370510e+02  -1.0256946259270455e+02  -1.0266950647856360e+02  -1.0257320456335530e+02  -1.0245840592770988e+02  -1.0232739876396782e+02  -1.0195679329248645e+02  -9.9832795237850902e+01  -9.6572770450647752e+01  -9.3008274866415732e+01  -9.0785711627776337e+01  -8.8891578754399461e+01  -9.2887727659433267e+01  -1.3087984219849491e+02  -1.4972908207584013e+02  -1.6012881465706874e+02  -1.6032253583136801e+02  -1.7213183231255783e+02  -2.0894816755974679e+02  -2.4348834301709516e+02  -3.0334535793030369e+02  -3.9550006826124530e+02  -8.5493930390972321e+02  -6.0424279128649903e+02  -5.6088923146820719e+02  -5.6321877266823378e+02  -5.6151672286427493e+02  -5.6160095255996805e+02  -5.6129124353668703e+02  -5.6151048766346207e+02  -5.6141357242123468e+02  -5.6167933851283146e+02  -5.6218099479481691e+02  -5.6266052469041290e+02  -5.6267936144482758e+02  -5.6342538393139148e+02  -5.6259938440484234e+02  -5.5867707604274710e+02  -5.4558799483711232e+02  -5.2150218687911581e+02  -5.1146598496296491e+02  -5.1031035039262559e+02  -5.1162704255165625e+02  -5.1297088747882196e+02  -5.1369524298559134e+02  -5.1402954716958322e+02  -5.1455970221036443e+02  -5.1456509224072704e+02  -5.1331567636465570e+02  -5.1265778539430755e+02  -5.1309792570675734e+02  -5.1311462211057255e+02  -5.1460065878759451e+02  -5.1499058355984698e+02  -5.1423765105474149e+02  -5.0538386806662919e+02  -4.9092755032719043e+02  -4.8344159546191497e+02  2.2595962077399793e+02  1.6395526833085543e+02  9.2956379239353183e+01  5.4996356587779232e+01  4.3336333497233156e+01  3.9336884158547022e+01  3.9031518986226473e+01  3.9107372350328987e+01  3.9193773963475017e+01  3.9448170272811446e+01  3.9731065645840665e+01  3.9843898045886270e+01  4.0273042156244060e+01  4.0409802141607948e+01  4.0450873441618718e+01  4.0628983271310119e+01  4.0918371156228652e+01  4.1076134403653683e+01  4.1174269264937685e+01  4.1549553899213997e+01  4.1758443802925818e+01  4.2355708303343611e+01  4.4268161684338772e+01  4.3629740843798821e+01  4.1579151687783153e+01  3.5752266269565830e+01  3.1178126648604497e+01  -5.1134915748046984e+02  -5.1329103803698251e+02  -5.1552146084266997e+02  -5.1737597065313787e+02  -5.2314251985378803e+02  -2.0872509039294524e+04  -5.1779586592500925e+02  -5.0088545952377143e+02  -1.9910791483192219e+02  -2.0967460381483480e+02  -2.1770862453969895e+02  -2.3640469129844203e+02  -2.5806393082955043e+02  -2.7283033943115333e+02  -3.0363885990006008e+02  -3.2073020701640212e+02  -3.3405851432602367e+02  -3.4412136499898213e+02  -3.5069249112506702e+02  -3.5808735368014862e+02  -3.6054670338683405e+02  -3.7221659261278194e+02  -3.8905418916272941e+02  -4.0031211656386103e+02  -4.0668087924788244e+02  -4.0529940387692619e+02  -4.1123182477229489e+02  -4.2416929293775513e+02  -4.3930346184982949e+02  -4.4663546224626828e+02  -4.4459158831112984e+02  -5.6542590744928316e+02  -1.7037010247401070e+03  -2.9012925143061818e+02  -3.1567070098356749e+02  -3.2457666259568680e+02  -2.6328452583623084e+02  -1.8826985447034841e+02  -1.3201048641205108e+02  -1.2121045663335684e+02  -1.2582908326747207e+02  -1.3973545588635574e+02  -1.4701114993354358e+02  -1.4921251366567529e+02  -1.4930578590000215e+02  -1.4897868379957387e+02  -1.4881112253868037e+02  -1.4834211503252070e+02  -1.4813894152247022e+02  -1.4803870046215866e+02  -1.4802652482442321e+02  -1.4799346804586850e+02  -1.4800512475896647e+02  -1.4797067870257325e+02  -1.4796638966975925e+02  -1.4784979125671134e+02  -1.4760879441809195e+02  -1.4765937333208606e+02  -1.4712157529819746e+02  -1.4568349791994049e+02  -1.4561039751378831e+02  -1.4599544935697793e+02  -1.5003794906424127e+02  -1.5913647676729909e+02  -1.8169338209906880e+02  -3.2089614119819549e+02  -2.5404517569993001e+02  -3.0686235485316242e+01  3.8507501527222594e+01  3.8718332086817725e+01  3.8236125480164667e+01  3.6864118669632369e+01  3.5343692440702753e+01  3.4289337950430983e+01  3.4010320732572396e+01  3.4010941011536374e+01  3.3985408218476252e+01  3.3971221532421332e+01  3.3960762503543187e+01  3.3973815326019924e+01  3.4014165729214206e+01  3.4037033619102488e+01  3.4066084950785545e+01  3.3797351756259516e+01  3.3576372117249790e+01  3.3029827502465785e+01  3.2956820223807910e+01  3.1728638888403825e+01  2.9343973089728731e+01  2.9553197413105647e+01  3.5498918110337129e+01  5.3916163088181435e+01  1.6159278186321905e+02  8.6646335619876865e+01  -6.0637678447305007e+02  -5.4636336993263524e+02  -5.4587132175904924e+02  -5.4602208770427546e+02  -5.4905214048075356e+02  -5.5107815531763640e+02  -5.4983396186922369e+02  -5.4379871999172371e+02  -5.7722289575144498e+02  -5.8321665460994006e+02  -5.2669298091207099e+02  -4.9664685415931439e+02  -4.8080356362485043e+02  -4.5739791671223730e+02  -4.2531987506272770e+02  -3.9260668952572939e+02  -3.8068528906031901e+02  -3.7830132889316525e+02  -3.7914000642998798e+02  -3.8120184741660319e+02  -3.8038114568311966e+02  -3.7663613417421885e+02  -3.6962413760832976e+02  -3.6296863886995635e+02  -3.5755007364891998e+02  -3.4966156189217600e+02  -3.4046274558568592e+02  -3.3459199659112426e+02  -3.3197993372171612e+02  -3.3234862791809047e+02  -3.3156905435083041e+02  -3.2981331223586841e+02  -3.2821218660312201e+02  -3.3415531905819370e+02  2.7270641657729261e+01  4.9572044332798367e+02  -1.4265432310372984e+02  -7.1374819221222893e+01  -4.1193091535548547e+01  -2.5568979044677004e+01  -3.9031217655716908e+01  -1.3633653274850694e+01  2.6221987155532538e+01  1.4128276910816481e+01  1.6545896866172569e+01  1.9929946545786123e+01  3.1339513835644322e+01  4.4374434591273689e+02  4.9924919390338653e+02  5.7639020818169854e+02  6.2043878796549825e+02  5.0282340788686713e+02  4.6379225863056490e+02  4.5339664918489933e+02  4.3689158317893862e+02  4.4820464196652961e+02  4.3848843847429322e+02  4.2410291562482007e+02  4.0420556846127494e+02  2.8342631181521631e+02  -9.5921859814698820e+01  -2.3597623384471589e+01  -1.0280918763932004e+01  -8.1494324295574749e+00  -7.6718100923010528e+00  -8.5105958568708662e+00  -9.6524494267837415e+00  -1.0319343500402001e+01  -1.0490849757876143e+01  -1.1210062679068612e+01  -1.1288469246911774e+01  -9.5894204607518407e+00  -4.5004456770999495e+00  2.2858948136063741e+00  7.7177395452148900e+00  9.2440598194788794e+00  1.0013426726806134e+01  1.1853807312198915e+01  1.9524765559291829e+01  2.6358648658804334e+01  2.3959932399278841e+01  -2.1185464703985918e+01  -2.5650396794190467e+01  -2.3132907127505273e+01  -2.2007143284540746e+01  -2.0819482384089110e+01  -2.0669090840786993e+01  -2.1920800970701723e+01  -2.0726043015787219e+01  -2.1116879312174945e+01  -1.9147663925223313e+01  -1.5018349102254682e+01  -1.0788590592600814e+01  -5.8961681847453491e+00  -4.3870022147285042e+00  -2.7840949604013518e+00  4.8719349345665564e-01  3.5990970854418189e+00  5.3083445754123089e+00  8.8227873889216912e+00  2.2529489778472389e+01  2.6197584894995131e+01  2.7377822985180458e+01  2.6330082167478654e+01  2.5253229512141207e+01  2.4465638615521630e+01  2.3909579277901205e+01  2.4008723622676182e+01  2.3978422526352954e+01  2.3969661335427691e+01  2.3958370354365801e+01  2.3980540399393178e+01  2.3969429991751507e+01  2.3960415387565025e+01  2.3921596705244678e+01  2.3963231090962790e+01  2.3977790304742591e+01  2.3979785387031345e+01  2.4000429160936072e+01  2.4006129735314722e+01  2.3984907093444662e+01  2.3986148854193438e+01  2.4086492633914791e+01  2.3417920456613491e+01  2.3785907925283382e+01  2.4594742739227062e+01  2.6203649698967226e+01  2.6158246659332477e+01  2.7786676988453944e+01  2.7247988679914048e+01  2.8401579051808827e+01  3.0290853620928580e+01  3.5311102635259481e+01  4.4517035225289199e+01  5.4776243835954645e+01  5.0075669347413543e+02  5.1333882994294447e+02  5.1557471073286831e+02  5.1548467902086225e+02  5.1678508921296338e+02  5.1842665367284087e+02  5.4570668652131201e+02  5.3532185640387172e+02  3.9453312854874116e+02  5.5587615472220637e+02  4.6301239494680124e+02  7.9334930288122365e+01  4.6980901165662161e+01  4.3272474195009138e+01  3.3712436716423994e+01  5.3710120761645079e+01  1.4028431459753088e+02  1.5620546883678685e+02  1.5867341880095529e+02  1.6493239886006725e+02  1.6634464008156232e+02  1.7186107257473944e+02  1.7510389882942525e+02  1.7644319399735690e+02  1.7738806067245565e+02  1.7817575400975116e+02  1.7849894116458944e+02  1.7870704421680384e+02  1.8159684167435111e+02  1.9927842733183775e+02  2.0163132676503224e+02  1.9904429195465951e+02  1.9781188766739504e+02  1.9720165653856603e+02  1.9751695670933458e+02  1.9711521492760230e+02  1.9683834071575168e+02  1.9528947172435011e+02  1.9414447626457573e+02  1.8744353772112868e+02  1.5212474848715107e+02  2.2146428451405086e+02  2.2178893236604424e+02  2.7195354110008998e+02  4.0492768876739177e+02  2.2806449857963727e+02  2.0506223013081939e+02  2.0585243996322416e+02  2.1004283235896656e+02  2.0930409714416308e+02  1.7884379333529529e+02  1.7778583395528608e+02  2.8215775384168768e+02  3.4373303255038456e+02  3.4898410827629135e+02  4.5077519908883619e+02  3.1275682033597718e+02  3.3775188517656557e+02  3.3163233017242084e+02  3.2908729228273972e+02  3.2738971928309280e+02  3.3385314079277327e+02  3.3294858171169966e+02  3.3042854354123966e+02  3.2277174710543642e+02  2.5106173528028285e+02  2.1241628380606301e+02  2.0007430693806910e+02  1.6083001023224290e+02  1.4236533845658155e+02  1.0272320688187686e+02  7.0956832395273835e+01  2.1606274053925016e+01  2.5904344552416617e+01  2.2990477954283730e+01  2.6570432632149860e+01  2.7861183074976285e+01  2.8822705492406726e+01  2.7603666532567374e+01  2.6868014908545355e+01  2.5860492951939744e+01  2.2183535508137410e+01  1.6220152484497952e+01  1.1712053318719018e+01  -2.1970776614162761e+00  -7.8731016133549545e+00  -2.1024659398909964e+01  -3.9456180513144488e+01  4.9801513390514689e+00  1.4076871015465929e+02  -3.2589898293942291e+01  1.4608493112068106e+02  1.4361791007070349e+02  7.7263638779160351e+00  -1.3782812040199349e+01  -1.3576822967765137e+01  -1.2943225570415873e+01  -1.2825177638168235e+01  -1.4251749111454323e+01  -1.7095034476794371e+01  -1.9012156552044008e+01  -2.0659038987340470e+01  -2.5336903594787671e+01  -3.6200126312339130e+01  -2.0221353077487812e+01  -1.1207300547637981e+01  1.9891195813769770e+01  1.1329924904176410e+02  1.0565218216877768e+02  1.0878323563451852e+02  1.1977624816391697e+02  1.2667558365345212e+02  1.4210261942693975e+02  1.4707379291109109e+02  1.5192629971555144e+02  6.8506183495036069e+01  3.4983035506757169e+01  3.3222489013029254e+01  3.0777881795194826e+01  3.0748318060325591e+01  3.0442724089966340e+01  3.0817483362503136e+01  2.9464938884812785e+01  2.8077831604568601e+01  2.1031319552362834e+01  7.9614852680795032e+00  1.0289458651855936e+00  2.2210580890042164e-01  -2.3508288980131109e+00  -3.2949217233154204e+00  -3.2584295838213095e+00  -2.7676223891772365e+00  -2.6562643089932330e+00  -1.8069441685311169e+00  -1.5844176372413652e+00  -1.6024890840598791e+00  -2.0441365518144523e+00  -4.1885481120627830e+00  -4.9547294991041371e+00  -8.0557877192087073e+00  -8.7791686394858957e+00  -1.0552770142979233e+01  -1.1538778492557075e+01  -1.5392357846757337e+01  -2.0276913974958884e+01  -2.3965122111558699e+01  -2.5121481007990116e+01  -2.5095570071715372e+01  -2.4797891172262688e+01  -2.3900606005644395e+01  -2.0537108832045078e+01  -2.0428914748702326e+01  -2.1039000090060398e+01  -2.1179390921183586e+01  -2.1271277637963721e+01  -2.1302460286969911e+01  -2.1328778447694745e+01  -2.1347232484017113e+01  -2.1352881485014485e+01  -2.1374468297296112e+01  -2.1400451747327001e+01  -2.1419890950458260e+01  -2.1460200026414718e+01  -2.1490375093228064e+01  -2.1475604608962733e+01  -2.1486106938197196e+01  -2.1515312249050059e+01  -2.1729096960083247e+01  -2.1893687436059874e+01  -2.1596893610092110e+01  -2.1103252002168002e+01  -2.0666772966305633e+01  -1.9833108339974949e+01  -1.7495766090054033e+01  -1.5577376922800628e+01  -1.4672322154094347e+01  -1.4060982507471103e+01  -1.3654932917726546e+01  -1.3444823286558769e+01  -1.3317472631462669e+01  -1.3254632259566870e+01  -1.3118307216078419e+01  2.8243908575838841e+01  1.4246980915819356e+02  1.4316115434178155e+02  1.3982076049491022e+02  1.4075732214094674e+02  1.4053048525225728e+02  1.4021363021893214e+02  1.4028830220167902e+02  1.4096723117191198e+02  1.4380850657295139e+02  1.4625413680673859e+02  1.4794214737182517e+02  1.4725840448680549e+02  1.4707813612850478e+02  1.4627276845299895e+02  1.4590639621365776e+02  1.4576317572572503e+02  1.4568541011784708e+02  1.4570150942898758e+02  1.4566423813347365e+02  1.4566984269668990e+02  1.4567097331599319e+02  1.4568640619053741e+02  1.4568232386404242e+02  1.4559086512750287e+02  1.4544205812828528e+02  1.4448836575041975e+02  1.4436332892724249e+02  1.4298474047028768e+02  1.4321886020739291e+02  1.4709717328992949e+02  1.5094014675030925e+02  1.5576650739361602e+02  1.6458869962083656e+02  1.6367999022388491e+02  1.7805839524198754e+02  1.8711775023718656e+02  1.9042765333066782e+02  1.9256740335400147e+02  1.9597390503377875e+02  1.9709880537197714e+02  2.0346822959440652e+02  2.0638078724190299e+02  2.1119433212064177e+02  2.1075508578527337e+02  2.0658180760260203e+02  2.0107489837094582e+02  1.9196028840121176e+02  1.8405613551087947e+02  1.7909319803262491e+02  1.7846694831024908e+02  1.7898824678556466e+02  1.7957079413908423e+02  1.7980937903229568e+02  1.7990123869069183e+02  1.7986474637892246e+02  1.7996824170621593e+02  1.8004835307059028e+02  1.8006898930836658e+02  1.8015338032130603e+02  1.8020480822661244e+02  1.8026823841347388e+02  1.8034596682622660e+02  1.8040003289334425e+02  1.8041161782447446e+02  1.8040339125447284e+02  1.8038899729202291e+02  1.8041474974451262e+02  1.8039316976679257e+02  1.8040104776196392e+02  1.8046759864648112e+02  1.8048385084013182e+02  1.8069651430096425e+02  1.8130970025584128e+02  1.8143243557610168e+02  1.8185600246381620e+02  1.8081275290890650e+02  1.7779422813247595e+02  1.7633281266836318e+02  1.7382114133781207e+02  1.7392064702175668e+02  1.7274166511997089e+02  1.7211146015286369e+02  -3.8466756973068172e+01  8.0158472974732206e+01  1.2890595379861136e+02  1.6211363426006434e+02  1.5600457232105410e+02  1.6352764174850478e+02  1.5727401470114305e+02  1.5111009445082647e+02  1.5005065439030901e+02  1.5163718497069141e+02  1.5410173764059692e+02  1.5124068375375666e+02  1.4524393159122340e+02  1.4119000096474079e+02  1.4354854184709475e+02  1.4714915996339192e+02  1.3629987054174802e+02  1.3132701738966898e+02  8.5167684147045918e+01  6.6481467102058872e+01  3.9154208571672847e+01  2.8845681523440764e+01  6.2565562738645397e+00  -7.3537528196650932e+00  6.5703522465014910e+00  1.2965366168338671e+01  2.7802371018606081e+01  1.7103026545646795e+01  1.6988073495554644e+01  1.5538219218527979e+01  1.3234717386895317e+01  1.2507059014127577e+01  1.1419734661675768e+01  1.1258503813872519e+01  1.0993050280915472e+01  1.0620320050952104e+01  9.9748778276592134e+00  9.5777289726091688e+00  8.1378705850955537e+00  7.1390420607648313e+00  6.3856055257735624e+00  4.1896526641820424e+00  3.1510291317127899e+00  2.8710121977828855e+00  1.1855821951190981e+00  1.3010799897208897e-01  2.5307056484956538e+00  2.0893718702353442e+02  2.0737721045908125e+02  2.1211427757712801e+02  1.5994535459563107e+02  1.4754922899039983e+02  1.4315056759524285e+02  1.3666980210298792e+02  1.3465913935917584e+02  1.2703668312006864e+02  -9.9521938191721574e+01  2.6413375186035825e+02  2.7820782320632571e+02  1.7162946205295472e+02  1.9277938856274270e+02  2.0084889353409690e+02  2.8949054932426922e+01  5.2442826514204363e+01  9.3179558847084039e+01  1.2767728953860342e+02  1.3074455122828925e+02  1.5108785557070411e+02  1.3679890271834606e+02  8.8011476902412809e+01  2.6766856510708003e+01  -8.1073044734342563e+00  -1.5002067606189103e+01  5.3680756216003687e+00  1.8253153041221996e+01  1.4036253158480105e+02  2.6465219518943314e+02  2.6230173704666072e+02  2.0707439165323322e+02  1.9243291074890232e+02  1.8085622457698335e+02  1.8909211476107004e+02  1.4891028352817310e+02  9.4013939066064822e+01  9.5944935677702659e+01  9.5422327986279313e+01  9.6904945566990179e+01  9.2857706197815631e+01  1.7099756121718704e+02  1.8265804442925753e+02  -6.8165044278443460e+01  -2.5656569704823768e+00  8.8301918719702943e-01  -1.0560482127012594e+02  -6.9347017287725308e+01  -1.4621078408500779e+01  -1.7254921149590110e+01  -2.0472688606433348e+01  -2.1148856176087296e+01  -2.1251026396009674e+01  -2.1357474526793709e+01  -2.1341006772379963e+01  -2.2048389369222051e+01  -2.3060006806689849e+01  -2.5990467361640206e+01  -2.9949536069941413e+01  -4.1713417530428927e+01  -1.8648858241123000e+02  -2.2569484056373628e+02  -2.2008337770054598e+02  -2.2209697022614111e+02  -2.2619881046697267e+02  -2.2355863921082974e+02  -2.1906153033127049e+02  -2.1038043231916413e+02  -2.1104767085391694e+02  -2.0077108901011522e+02  -1.9044486390597135e+02  -1.7595230656984432e+02  -1.7096347372437032e+02  -1.5886665245838898e+02  -1.4835647006609523e+02  -1.3406029511088363e+02  -1.2604432920041376e+02  -1.0231628141157523e+02  -9.3183295361216224e+01  -8.2712008676636856e+01  -8.8970962491628910e+01  -5.1210520767201565e+01  -2.5976616340527454e+00  1.0996073280275048e+01  2.9014600896849614e+00  -1.9064768676089590e+00  -8.3291343944756893e+00  -1.0423110611042437e+01  -1.1602060857768530e+01  -1.2364817612964437e+01  -1.2407884876661276e+01  -1.2251490763692409e+01  -1.2098473773697521e+01  -1.2051613858503092e+01  -1.1982161801232968e+01  -1.1877680426669626e+01  -1.1896797347490958e+01  -1.1840916264183038e+01  -1.1813007605281484e+01  -1.1686000234454760e+01  -1.1393639769400625e+01  -1.1674345644244285e+01  -1.2707903506037177e+01  -1.3355955771334328e+01  -1.3860024954630333e+01  -1.4032476218415201e+01  -1.4033162379880443e+01  -2.1490301259031327e+01  -2.1570169710632207e+01  -2.1075691308233178e+01  -2.0897643423318634e+01  -2.0877394691267749e+01  -2.0773697177664378e+01  -2.0893537187254701e+01  -2.0792360922770321e+01  -2.0566169853660003e+01  -2.0509838775790914e+01  -2.0013927884549457e+01  -1.9541000460490320e+01  -1.9589824657263126e+01  -1.9808803218749148e+01  -2.0207306964683340e+01  -2.0638686804838262e+01  -1.9421929230060236e+01  -1.4469089782677921e+01  -1.0819457296657873e+01  -5.4525880570879979e+00  -3.1125298706079246e-01  7.7633382638139148e+00  1.9650476945033681e+01  2.5311078597135836e+01  3.5737021908331698e+01  4.4784805753080313e+01  4.4178722797771442e+01  4.4539517636058882e+01  6.3856452469417192e+01  7.4292652464082011e+01  -8.0300179335396621e+01  -2.5586669020521015e+02  -2.4858479767663826e+02  -2.8500792301421922e+02  -2.6773128523985201e+02  -2.8456366353501198e+02  -2.8292459240717858e+02  -3.1047155217406777e+02  -3.2379233173628302e+02  -3.2721297339802555e+02  -3.2900242369916276e+02  -3.2908528852209326e+02  -3.2694115964595812e+02  -3.2658811771392425e+02  -3.2471072665456097e+02  -3.2122651220623300e+02  -3.2319800481990865e+02  -3.1945138107