<?xml version="1.0"?>
<VTKFile type="UnstructuredGrid"  version="0.1"  >
<UnstructuredGrid>
<Piece  NumberOfPoints="20297" NumberOfCells="37598">
<Points>
<DataArray  type="Float64"  NumberOfComponents="3"  format="ascii">0 1 0  0 0 0  1 0 0  1 1 0  0.4193548387096774 0.3957557478112131 0  0.4391882976170418 0.3870967741935484 0  0.4193548387096774 0.3586062758751302 0  0.4164696164336297 0.3548387096774194 0  0.3870967741935484 0.3249861511775794 0  0.3854476115411556 0.3225806451612903 0  0.3870967741935484 0.3218777812264701 0  0.3979462407852638 0.2903225806451613 0  0.3870967741935484 0.2730063903418078 0  0.3548387096774194 0.2583664463781581 0  0.3416284385829369 0.2903225806451613 0  0.3225806451612903 0.3189524082740545 0  0.3137163387718033 0.3225806451612903 0  0.2903225806451613 0.3514429969577487 0  0.2695204281107318 0.3225806451612903 0  0.2580645161290323 0.311619620188604 0  0.2481724043523276 0.2903225806451613 0  0.2258064516129032 0.2725312873880542 0  0.2066432715143114 0.2903225806451613 0  0.1935483870967742 0.3113192897949753 0  0.1612903225806452 0.2993683899037621 0  0.1514493761202808 0.2903225806451613 0  0.1612903225806452 0.279102510680159 0  0.1732195430821553 0.2580645161290323 0  0.1612903225806452 0.2516200792785254 0  0.1290322580645161 0.2466876901476395 0  0.09677419354838709 0.25151869066312 0  0.07386385805206379 0.2258064516129032 0  0.06451612903225806 0.2019081726101217 0  0.04376402310781836 0.2258064516129032 0  0.03225806451612903 0.2555225314946796 0  0.03225648147933431 0.2580645161290323 0  0.03222873620683644 0.2903225806451613 0  0.03225806451612903 0.3032394568443953 0  0.04597755618816433 0.3225806451612903 0  0.05254427611470952 0.3548387096774194 0  0.05387615044031122 0.3870967741935484 0  0.03225806451612903 0.4019233600410395 0  0.03213082293660115 0.4193548387096774 0  0.03224040681370221 0.4516129032258064 0  0.03221732828023535 0.4838709677419355 0  0.03225806451612903 0.4995653215273025 0  0.06451612903225806 0.5092810751241968 0  0.09677419354838709 0.484185628137613 0  0.09728808753359655 0.4838709677419355 0  0.1290322580645161 0.465616342822313 0  0.1612903225806452 0.4577254510826551 0  0.1693495921787164 0.4516129032258064 0  0.1612903225806452 0.4343794527121964 0  0.1290322580645161 0.4273383524910928 0  0.09677419354838709 0.4508457305344588 0  0.08133320684661607 0.4193548387096774 0  0.09677419354838709 0.4117030222580202 0  0.1211266378384577 0.3870967741935484 0  0.1290322580645161 0.3578755671730555 0  0.1449091407444954 0.3870967741935484 0  0.1612903225806452 0.4120805049710443 0  0.1930632608778556 0.3870967741935484 0  0.1935483870967742 0.3862133946651745 0  0.1996065233010894 0.3548387096774194 0  0.2258064516129032 0.3305837886559046 0  0.2495680055093841 0.3548387096774194 0  0.2580645161290323 0.3645425018077238 0  0.2903225806451613 0.3559296041622334 0  0.3225806451612903 0.3598685167302493 0  0.3500592626049289 0.3870967741935484 0  0.3548387096774194 0.3949789023639879 0  0.3870967741935484 0.4080512647083659 0  0.4516129032258064 0.3685660158275543 0  0.4646634615501196 0.3548387096774194 0  0.4516129032258064 0.3402213239789891 0  0.4265085781601817 0.3548387096774194 0  0.5161290322580645 0.3069473962767141 0  0.5313578713464154 0.2903225806451613 0  0.5286810232132444 0.2580645161290323 0  0.5161290322580645 0.2564061200380998 0  0.4936075414951089 0.2580645161290323 0  0.4838709677419355 0.2590436555477507 0  0.459499878759375 0.2903225806451613 0  0.4838709677419355 0.3115666293483131 0  0.686935246830378 0.1935483870967742 0  0.6964070380520153 0.1612903225806452 0  0.6774193548387096 0.1402578423727283 0  0.6451612903225806 0.1345794495594131 0  0.6277622380621604 0.1290322580645161 0  0.6451612903225806 0.1189758427426393 0  0.6528834706168711 0.09677419354838709 0  0.655698889350132 0.06451612903225806 0  0.6451612903225806 0.04670010240721646 0  0.6327777436624538 0.03225806451612903 0  0.6129032258064516 0.03218639407161423 0  0.5806451612903225 0.03224917164614495 0  0.5761461356752962 0.03225806451612903 0  0.5806451612903225 0.0361258062351244 0  0.5999612094973704 0.06451612903225806 0  0.5806451612903225 0.09469915386453576 0  0.5774459036075319 0.09677419354838709 0  0.5806451612903225 0.1006596512239938 0  0.6012448791544495 0.1290322580645161 0  0.594219701670722 0.1612903225806452 0  0.5806451612903225 0.1684365727403344 0  0.5483870967741935 0.1889892265005325 0  0.5161290322580645 0.1716050249229841 0  0.5017777076022358 0.1935483870967742 0  0.5161290322580645 0.2011280284310864 0  0.5483870967741935 0.1952735898513203 0  0.5784862191910172 0.2258064516129032 0  0.5520398457204474 0.2580645161290323 0  0.5806451612903225 0.2768836330005696 0  0.6004530642844397 0.2580645161290323 0  0.6129032258064516 0.2333898795078895 0  0.6174752118366921 0.2258064516129032 0  0.6451612903225806 0.2053712575733347 0  0.6774193548387096 0.1989230468550632 0  0.7096774193548387 0.1443950683655721 0  0.721589313359236 0.1290322580645161 0  0.7096774193548387 0.1106094247058165 0  0.692144421788041 0.1290322580645161 0  0.5161290322580645 0.1422339031567273 0  0.5190625373543839 0.1290322580645161 0  0.5161290322580645 0.1271717806076735 0  0.4838709677419355 0.1187540176777006 0  0.4735035789837664 0.1290322580645161 0  0.4838709677419355 0.1529097696696663 0  0.3225806451612903 0.2620249410094764 0  0.3533959488907933 0.2580645161290323 0  0.3339421325567522 0.2258064516129032 0  0.3225806451612903 0.1978029740214226 0  0.2981775717512479 0.2258064516129032 0  0.2903225806451613 0.2312660272371715 0  0.2721946271792433 0.2580645161290323 0  0.2745463159978684 0.2903225806451613 0  0.2903225806451613 0.3066445196360119 0  0.298553146689821 0.2903225806451613 0  0.2580645161290323 0.2087063969447212 0  0.2850170709881975 0.1935483870967742 0  0.2627491359744988 0.1612903225806452 0  0.2580645161290323 0.1472670452958482 0  0.2536406068060094 0.1612903225806452 0  0.2318754587044064 0.1935483870967742 0  0.4516129032258064 0.2185869073094419 0  0.4666177781176092 0.1935483870967742 0  0.4516129032258064 0.166619940016267 0  0.4193548387096774 0.1702594020704004 0  0.3982699974913231 0.1612903225806452 0  0.3870967741935484 0.1539657212254513 0  0.3548387096774194 0.1331125011748442 0  0.3526637828149454 0.1290322580645161 0  0.3454189804172519 0.09677419354838709 0  0.3225806451612903 0.08464216362596107 0  0.3113894449696348 0.09677419354838709 0  0.2903225806451613 0.1213739274247775 0  0.2709327251246011 0.1290322580645161 0  0.2903225806451613 0.1370885911331876 0  0.3225605547830323 0.1612903225806452 0  0.3225806451612903 0.1614048339747417 0  0.3258600584992967 0.1935483870967742 0  0.3548387096774194 0.2071595305573526 0  0.3870967741935484 0.2089275363248324 0  0.4092869932689901 0.2258064516129032 0  0.4193548387096774 0.2338896126505015 0  0.4365375268436124 0.2258064516129032 0  0.4537898839618074 0.06451612903225806 0  0.4613875883001616 0.03225806451612903 0  0.4516129032258064 0.03222712762353553 0  0.4379152422378026 0.03225806451612903 0  0.4462687365275376 0.06451612903225806 0  0.4516129032258064 0.06812971066814638 0  0.3926210056092596 0.09677419354838709 0  0.4015481191267781 0.06451612903225806 0  0.3870967741935484 0.04696402089405764 0  0.3799338263321365 0.06451612903225806 0  0.3738940148816253 0.09677419354838709 0  0.3870967741935484 0.1012834597693733 0  0.2580645161290323 0.1216739564841013 0  0.2713376572955529 0.09677419354838709 0  0.2580645161290323 0.08198768857200381 0  0.245033761372629 0.09677419354838709 0  0.2258064516129032 0.2298660035432382 0  0.2280060663119162 0.2258064516129032 0  0.2258064516129032 0.2173333840276323 0  0.2055460781455446 0.1935483870967742 0  0.1935483870967742 0.1837972694455655 0  0.1750066271498013 0.1612903225806452 0  0.1612903225806452 0.1573751070311096 0  0.1290322580645161 0.1589558562314616 0  0.1204470760410392 0.1612903225806452 0  0.09677419354838709 0.1688320169202633 0  0.07247728255580783 0.1935483870967742 0  0.09677419354838709 0.203336208057176 0  0.1290322580645161 0.2113530895768299 0  0.1612903225806452 0.2028607206999856 0  0.1841599655732597 0.2258064516129032 0  0.1935483870967742 0.2416476290436882 0  0.1488939216812757 0.09677419354838709 0  0.1505014824598396 0.06451612903225806 0  0.1290322580645161 0.03262525470034697 0  0.1117282278160045 0.06451612903225806 0  0.1184785652110032 0.09677419354838709 0  0.1290322580645161 0.1117145651496636 0  0.1612903225806452 0.03906962705370044 0  0.1623983095854954 0.03225806451612903 0  0.1612903225806452 0.03225347508105359 0  0.1315756782463647 0.03225806451612903 0  0.04527109249512595 0.06451612903225806 0  0.05001899341614489 0.03225806451612903 0  0.03225806451612903 0.03220338797779966 0  0.03220350731587281 0.03225806451612903 0  0.03224635366787391 0.06451612903225806 0  0.03225806451612903 0.06988410449505301 0  0.03225806451612903 0.2167686534297316 0  0.05815644045114145 0.1935483870967742 0  0.03225806451612903 0.1772567327624284 0  0.03221059742118187 0.1935483870967742 0  0.06451612903225806 0.1853701478056508 0  0.0890232024988057 0.1612903225806452 0  0.06451612903225806 0.1456560387370963 0  0.05082108587908855 0.1612903225806452 0  0.06451612903225806 0.5654702856269378 0  0.08216237167173589 0.5483870967741935 0  0.06451612903225806 0.5215308645011285 0  0.03225806451612903 0.5242337748353204 0  0.03213082593706674 0.5483870967741935 0  0.03221759271273896 0.5806451612903225 0  0.03225806451612903 0.6099152963606872 0  0.04266224949681238 0.5806451612903225 0  0.06451612903225806 0.9215871417404886 0  0.08006242281033961 0.9032258064516129 0  0.06451612903225806 0.8827867084392479 0  0.05542191815931365 0.8709677419354839 0  0.03225806451612903 0.839338625244503 0  0.03218467027919811 0.8709677419354839 0  0.03222064360957538 0.9032258064516129 0  0.03225806451612903 0.9102944443544632 0  0.09677419354838709 0.8090946794192896 0  0.1012622907279799 0.80645161290322
[...]
<PointData  Scalars="f_615-1"> 
<DataArray  type="Float64"  Name="f_615-1"  format="ascii">-1.3107601460240208e+04  3.2518094839540281e+04  2.1985006539404458e+04  -1.2372336019679993e+04  -6.5953132770332531e+03  5.1262034537668251e+03  1.7809174835085996e+04  2.0872005524027853e+04  2.1499444192091491e+04  2.1482607643282216e+04  2.1475681179189738e+04  2.1696341822408889e+04  2.1953899202731835e+04  2.1948784501715923e+04  2.6611742923974620e+04  2.6619867660066084e+04  2.6627225488272670e+04  2.6636617054530332e+04  2.6645617741537204e+04  2.6660664285038543e+04  2.6686824404411687e+04  2.6676034282890138e+04  2.6605259262018662e+04  2.6613563218438550e+04  2.6617706092065418e+04  2.6617992414915578e+04  2.6619157816000370e+04  2.6616300377688029e+04  2.6444624833046077e+04  2.6366972852121409e+04  2.6318337664543436e+04  2.6273108547205229e+04  2.5373231368718818e+04  2.0901450854618255e+04  1.9643537812343580e+04  1.8512910271691708e+04  1.5949900694344698e+04  1.4163097011866757e+04  1.3055439025927737e+04  1.2446063927705594e+04  1.2236395761887452e+04  1.1310860897622242e+04  9.0685735574724185e+03  6.1941988402673787e+03  3.3000096745632000e+03  8.0694589561436374e+02  -6.9339014545564851e+03  -9.3792252961981976e+03  -9.3707965572228622e+03  -9.3366855404837643e+03  -9.3276600394760862e+03  -9.3220027812029221e+03  -9.3208519181637876e+03  -9.3210060557575835e+03  -9.3209839617794150e+03  -9.3209870874771568e+03  -9.3209970013328839e+03  -9.3210105586523714e+03  -9.3209523839839749e+03  -9.3210034139308500e+03  -9.3212234112681235e+03  -9.2018061574697440e+03  -7.8780272422075059e+03  -7.6066177636104003e+03  -7.6063197009753194e+03  -7.6058454877776230e+03  -7.6039145109639558e+03  -7.6031187234660820e+03  -7.6028283587725446e+03  -7.6000595821335837e+03  -7.5975008217804643e+03  -7.7675257976243038e+03  7.0020166390387312e+03  1.9260627961236522e+04  2.1668518684194016e+04  1.8225120190470654e+04  2.0964939549901166e+04  2.1226670887394128e+04  2.2354977509429838e+04  2.2716385582805655e+04  2.2925489759307678e+04  2.2720640986514845e+04  2.1590140525642582e+04  2.0387153529540126e+04  2.0805910360965521e+04  2.1540983106803607e+04  2.3063110191260846e+04  2.3161582596005286e+04  2.3156607071884660e+04  2.3145172848069564e+04  2.3146792035441202e+04  2.3171226446886343e+04  2.3450948299321095e+04  2.4039320910132021e+04  2.5052342858001488e+04  2.5818841330769497e+04  2.6291409753963333e+04  2.6305512379473254e+04  2.6230842794844393e+04  2.6393063438234061e+04  2.6206323081787192e+04  2.5984207720161918e+04  2.6032247724556863e+04  2.6041074971492566e+04  2.6051699108168898e+04  2.6007494021867999e+04  2.5521229608202659e+04  2.3170652060981436e+04  2.2416080854479642e+04  2.2489957842180200e+04  2.2522151104750152e+04  2.2080436937987004e+04  2.1182133467748772e+04  2.0995370032011455e+04  2.0843077446178366e+04  2.0849971227501046e+04  2.0789981105001927e+04  2.0700171244152370e+04  2.1416463802597595e+04  2.1498843090822371e+04  2.3178846267751298e+04  2.3078072120123717e+04  2.5920645463169145e+04  2.6169560146369397e+04  2.6374023468703290e+04  2.6305029720733841e+04  2.6370040718725853e+04  2.4184835428546219e+04  2.6607292464347589e+04  2.3202417549516547e+04  2.1958333270522682e+04  2.5896084478583442e+04  2.6716264876886373e+04  2.6713439387096918e+04  2.6690433356893991e+04  2.6671800103175421e+04  2.6633322499976435e+04  2.6619277068402433e+04  2.6687201710330770e+04  2.6712557729559179e+04  2.6819569513701044e+04  2.7060525823411303e+04  2.7167520694475654e+04  2.7078129300794517e+04  2.2321827017025440e+04  2.3728328579344099e+04  2.5790268474499444e+04  2.6191944702714976e+04  2.6177817091397392e+04  2.6189050392374225e+04  2.6372958411512522e+04  2.6305973283409108e+04  2.7024755111314200e+04  2.7277087056908193e+04  2.7283414331321841e+04  2.7242863273164381e+04  2.7132342333156514e+04  2.6816891203968848e+04  2.6762550314805943e+04  2.6763207316005351e+04  2.5647030363532940e+04  2.1927007076642265e+04  2.1879942526682422e+04  2.1818980940883885e+04  2.1711082166609991e+04  2.1987221321898953e+04  2.6117989996470085e+04  2.6243786884098605e+04  2.6808337128436302e+04  2.7010484068422738e+04  2.6247283978847994e+04  2.5966026253659878e+04  2.5975509752577029e+04  2.6428155771714075e+04  2.7188960598158148e+04  2.7259006754998263e+04  2.6631446618752161e+04  2.6072938887982338e+04  2.7056991190937839e+04  2.7261076758428761e+04  2.7306929723386536e+04  2.7202380749858236e+04  2.6661034042149331e+04  2.6713728297806829e+04  2.6791600130529685e+04  2.7146282765167965e+04  2.7168410296110025e+04  2.7212035141362656e+04  2.7137394241003276e+04  2.6843220434840157e+04  2.6743979738766007e+04  2.6679698122336362e+04  2.5506464845206770e+04  2.6292914305510389e+04  2.6372808782415334e+04  2.6423600460759324e+04  2.6456467211062540e+04  2.6589979303408432e+04  2.7201025928783718e+04  2.7247616847754372e+04  2.7061356604750657e+04  2.6679587456582802e+04  2.6556189057240757e+04  2.6827310816474273e+04  2.7138600074501574e+04  2.7281839388788081e+04  2.7675842995462794e+04  2.7282129549532528e+04  2.6628329000641068e+04  2.7072095706565044e+04  2.7847578054121637e+04  2.6785666799197406e+04  2.6814885155379587e+04  2.6410742101083615e+04  2.0238023163412807e+04  2.5577377776485395e+04  2.6248882763327081e+04  2.3500736039380077e+04  2.5519762997747355e+04  2.6769906189099001e+04  2.6819891824211845e+04  2.5897157225622104e+04  -9.5702771819789796e+03  -9.5372236892826841e+03  -7.6842566855018968e+03  1.4549964885062545e+03  -9.8712789752854439e+02  -2.9062732671366557e+03  -5.5888169192954638e+03  -9.4742826259929807e+03  -1.1831886264891249e+04  -1.1590181659619953e+04  -1.1255673222722076e+04  -1.1178597241523041e+04  -1.0579048693556462e+04  -1.1122022811749799e+04  -1.1416755964025262e+04  -1.1658890312315636e+04  -1.1282292496451075e+04  -1.0821899345338086e+04  -1.0341298948828784e+04  -1.0181349958033245e+04  -1.0499529382806268e+04  -1.1214470867953005e+04  -1.0644951400554204e+04  -1.0096952322103129e+04  -9.7232222728952129e+03  -9.8194672959932414e+03  -1.0426673838444945e+04  -9.8201651309969438e+03  -5.0790784640582324e+03  -6.6318903804897245e+03  -7.9290946151816706e+03  -9.8679385253390101e+03  -9.8801545106386493e+03  -9.5858091642381023e+03  -9.5139686194989426e+03  -5.1976068319052019e+03  -1.0564832972366677e+04  -1.0228233309250152e+04  -9.3911170036388521e+03  -9.9655716980776397e+03  -1.1529704062414148e+04  -1.1320150308425158e+04  -1.0880655802849282e+04  -1.0859411791692244e+04  -1.0918122526870060e+04  -1.0504161684618031e+04  -1.1102949888062300e+04  -1.1435985133251676e+04  -1.1728260922224006e+04  -1.1707592214962644e+04  -1.1307985723317877e+04  -1.1250786801983217e+04  -1.1027029469120807e+04  -1.0911579196738170e+04  -1.0894424057865857e+04  -1.0798389485650159e+04  -1.0930244322519182e+04  -1.1062314773278840e+04  -1.0149840316359721e+04  -9.2193646681246646e+03  -8.1754874406787412e+03  -8.3201093435044459e+03  -8.3235658345070260e+03  -8.3302756241493753e+03  -8.3930050406635855e+03  -7.7922566323018264e+03  -7.7122144404330083e+03  -7.7182909231154308e+03  -7.7624170470829195e+03  -7.7624202792600881e+03  -7.7624455415033399e+03  -7.7624390941885104e+03  -7.7623544419433574e+03  -7.7623205985669310e+03  -7.7623017542208427e+03  -7.7621108130206339e+03  -7.7766388562675065e+03  -7.8902002790996148e+03  -7.6066168127497631e+03  -7.4811410045493576e+03  -7.5922075803669713e+03  -7.6026692246802359e+03  -7.6035525227876260e+03  -7.6034370863915155e+03  -7.6032834652704960e+03  -7.6033069600967701e+03  -7.6043137075412697e+03  -7.6057956344259428e+03  -8.0997313602520271e+03  -9.3216410546318148e+03  -9.3214182889372623e+03  -9.3212353056685224e+03  -9.3212202411847265e+03  -9.3211915540304435e+03  -9.3212297621570033e+03  -9.3207888639231369e+03  -9.3296428819385274e+03  -9.3208302395034843e+03  -9.3070741591966962e+03  -9.3877822820668607e+03  -9.6683966650269958e+03  -9.7097472450099831e+03  -9.6610936178712727e+03  -9.6558228359230070e+03  -9.6509476313378891e+03  -9.6509393329608374e+03  -9.6509376986286625e+03  -9.6509467217376896e+03  -9.6546448370701601e+03  -9.6602135714402375e+03  -9.6354688443900322e+03  -9.6260246461187890e+03  -9.7517504696955384e+03  -9.9118781438659280e+03  -9.8620428570894164e+03  -9.8210946973236114e+03  -9.9753490386345329e+03  -1.0481343137757045e+04  -1.0848427831985067e+04  -1.0894497008865115e+04  -1.0895932782479231e+04  -1.0910200327501145e+04  -1.0909035258935824e+04  -1.0908369393639949e+04  -1.0908105025941359e+04  -1.0907861331040789e+04  -1.0907745565555939e+04  -1.0907756147940094e+04  -1.0907761424263565e+04  -1.0907758476098843e+04  -1.0907764097506073e+04  -1.0907262794568200e+04  -1.0906048187501650e+04  -1.0918393052702013e+04  -1.0929673953734909e+04  -1.1097632049265158e+04  -1.1306727162544728e+04  -1.1262246755447992e+04  -1.1185751291962666e+04  -1.0596501281708139e+04  -1.0537405410166450e+04  -1.0570658968585412e+04  -1.0588280018432544e+04  -1.0673255942408277e+04  -1.0332778931779985e+04  -1.0150223220294727e+04  -9.8420134755450508e+03  -9.8255515987841627e+03  2.0711458080706827e+04  2.1177578028309028e+04  2.1152556341954227e+04  2.1150447942141942e+04  2.1150523089056176e+04  2.1150539342506243e+04  2.1153744886669218e+04  2.0927422755578042e+04  1.9957625205528173e+04  1.8137892213240251e+04  8.5397502240772465e+03  3.3564057093515376e+03  -7.2494155596013379e+03  -7.7622349801063301e+03  -8.0972409519293906e+03  -8.0044413290391294e+03  -8.0050495547858509e+03  -8.0055387826684409e+03  -8.0040473541856072e+03  -7.9879463465294284e+03  -7.8990399981674082e+03  -8.5643415161245030e+03  -9.1670521172846402e+03  -9.8325594752070756e+03  -9.9104590660313715e+03  -9.9077516557162726e+03  -9.9077767393840149e+03  -9.9044516900629187e+03  -9.8582414242180475e+03  -9.8462649823356860e+03  -9.8552457434999069e+03  -9.8488599480589419e+03  -9.8674287538340341e+03  -9.8087946047997284e+03  -9.8260940606495842e+03  -9.8497550463853840e+03  -6.6302921356582128e+03  7.3382660511191207e+03  1.7145058240749138e+04  1.7258746078234373e+04  1.7441631192579731e+04  1.7583953345491827e+04  1.8892376936728262e+04  2.0752418072723238e+04  2.0648387213688657e+04  2.0648947799842299e+04  2.0649497237591971e+04  2.0770011119881983e+04  2.0791211218606251e+04  2.0780503817866658e+04  2.0767335543752804e+04  2.0778618688634426e+04  2.1046829828547139e+04  1.8846821274629994e+04  -9.8253053042818283e+03  -9.8303947019092811e+03  -9.8463399880289144e+03  -9.8356908060408787e+03  -9.8323849490019820e+03  -9.7295935767657320e+03  -9.3919878511106381e+03  -9.5620405010211125e+03  -8.8396661439811069e+03  -7.7307192104670848e+03  -7.3959322127829601e+03  -7.1403728739162289e+03  -7.1586162657498407e+03  -7.1592004092935149e+03  -7.1622585283225162e+03  -7.1621770547595661e+03  -7.1620104613783697e+03  -7.1911347703585943e+03  -6.8105251693930331e+03  -6.6996915031570697e+03  -4.6390203396534580e+03  1.8849275842183224e+03  7.3901773974204925e+03  1.2637085148470129e+04  1.5469979017915783e+04  1.5287083857576286e+04  1.5161723562037028e+04  1.5430473277922545e+04  1.5762366131107336e+04  1.7532563769377739e+04  1.7779216682553346e+04  1.6880105745515648e+04  1.6848439982194959e+04  1.4167926355250438e+03  -6.5926997036384428e+03  -7.1153390681683259e+03  1.3435990708720186e+04  1.5245389383064712e+04  1.8183196659866207e+04  1.5710634494140353e+04  1.5760351933357988e+04  1.1937081328270375e+04  1.7119908908135902e+04  1.6926600018706577e+04  1.9603704165416242e+04  2.1746227379790940e+04  2.1701816813183494e+04  2.1597546406153346e+04  2.1018140321390274e+04  2.0588863953206655e+04  1.8187474304204501e+04  1.7362438863526928e+04  2.1467615293450010e+04  2.1929744492939757e+04  2.3208224487156487e+04  2.3136951854096325e+04  1.5852597149074401e+04  1.5395816792476393e+04  2.0500302094489467e+04  2.1394965459872037e+04  2.1739631160325996e+04  2.2695722694431679e+04  2.3094629393053609e+04  2.3474235501704712e+04  2.3505652033976534e+04  2.3082977459547496e+04  2.2879717927293517e+04  2.2911101285485460e+04  2.1848451449048847e+04  2.1032255435378971e+04  1.8553141002835753e+04  1.7314317053975090e+04  1.6714859597901133e+04  1.8167860990552985e+04  1.9544816715631583e+04  2.0451372394979750e+04  2.1311857379498681e+04  2.1841655846319871e+04  1.9912475486640062e+04  1.5662202301030553e+04  1.5491040837425018e+04  1.5642313884786467e+04  2.1134174960201068e+04  2.1139908861287142e+04  2.1336156902822102e+04  2.0963863063866120e+04  -1.1859763378539772e+04  -1.1383272320502059e+04  -1.1443807092074350e+04  -1.1854885020243177e+04  -1.2205713190923478e+04  -1.1466744158084075e+04  -1.1354215620906827e+04  -1.1875913791874251e+04  -1.1542053788161800e+04  -1.1266893022444876e+04  -1.1174519085186881e+04  -1.1299755298888222e+04  -1.1322525018131633e+04  -1.0929788252946899e+04  -1.0552131838932524e+04  -1.1221987702965931e+04  -1.2369700285881256e+04  -1.1866062849924481e+04  -1.0987854169940960e+04  -1.1105852783051449e+04  -1.1198510803456962e+04  -1.1189844241833456e+04  -1.1408696710403883e+04  -1.1563544383038563e+04  -1.1975373629178097e+04  -1.2210163027448436e+04  -1.1108776259589278e+04  -1.0006055326148675e+04  -9.9707388980386568e+03  -9.8264527398615373e+03  -9.8011384086566813e+03  -1.0458766125712586e+04  -1.0516001410141658e+04  -1.0683740828941100e+04  -1.0969629733632335e+04  -1.0810426714579238e+04  -1.0701233568821497e+04  -1.0714379706164604e+04  -1.0014097702395124e+04  -1.0064246574600291e+04  -1.0756592096375954e+04  -1.1196963854460186e+04  -1.1274247011380297e+04  -1.1363676889303264e+04  -1.1355277362667168e+04  -1.1187521826698841e+04  -1.1064407116235830e+04  -1.0985003057784743e+04  -1.1176507645407821e+04  -1.0057210115095868e+04  -9.7249888966060062e+03  -9.9024664535605571e+03  -9.9273873473555250e+03  -1.0112150875568155e+04  -1.0785390619874666e+04  -1.0898294796969752e+04  -9.9910772269960271e+03  -9.8310782729489838e+03  -9.8572432248303303e+03  -9.9016056521953124e+03  -9.8757903187949341e+03  -9.9895308218372902e+03  -9.7643456885872547e+03  -8.9249617418030175e+03  -1.0007112309099592e+04  -9.9831822188649094e+03  -9.8079725593906278e+03  -9.1403596664157503e+03  -8.3188782730455878e+03  -8.2297677045119472e+03  -9.6372446400174122e+03  -1.0077084775288362e+04  -1.1903264553934754e+04  -1.1257525657473923e+04  -1.0977326525613445e+04  -1.1865434250645829e+04  -1.1911469262237119e+04  -1.0652147105316197e+04  -9.8580343665407672e+03  -1.1192067764323987e+04  -1.1485143100986461e+04  -1.1150285979124646e+04  -1.0952478120208534e+04  -1.0751312142646146e+04  -1.1219630935492773e+04  -1.1987514872709289e+04  -1.0707860331294996e+04  -1.0395348580720209e+04  -1.0023768298899722e+04  -9.9763881543107273e+03  -9.9660977124379715e+03  -9.9511618894800486e+03  -9.8555345579710611e+03  -1.0530356775937445e+04  -1.1037006446462321e+04  -1.1027416309639937e+04  -1.0867856503194242e+04  -1.0862615724989220e+04  -1.0808795786860459e+04  -1.0701160380530595e+04  -1.0110605445620329e+04  -1.0076551334699185e+04  -9.8333278301445989e+03  -9.9368023788039591e+03  -1.0017574893484416e+04  -9.5952883842302926e+03  -9.6163539572459667e+03  -9.9357200361728428e+03  -9.4683971330005825e+03  -8.5170584722442163e+03  -9.1890943811018060e+03  -9.7364312390973882e+03  -9.9567488808377620e+03  -9.8779436815385707e+03  -1.1048913164864380e+04  -1.0889868189400844e+04  -1.0840057689063920e+04  -1.0902432241902457e+04  -1.1001374786031281e+04  -1.1047122909829508e+04  -1.1202471054834534e+04  -1.1019114767878769e+04  -1.0949291232109983e+04  -1.0975438340207926e+04  -1.1035965953005832e+04  -1.0776231724044483e+04  -1.0603982398612356e+04  -1.0921804087441767e+04  -1.2689515725542273e+04  -1.0321512735266879e+04  -9.3230596437503937e+03  -1.1672913332497850e+04  -1.1242260142658095e+04  -1.0336666158643011e+04  -9.9893387293490032e+03  -1.0832413210636267e+04  -1.7443322670290465e+04  -1.1831848421232397e+04  -2.6148195011058529e+03  -7.5770483239226642e+03  -9.6296276627064472e+03  -8.8040014930310372e+03  -8.1296698054172821e+03  -7.6501880993508275e+03  -7.4965690432117008e+03  -7.8811530152115083e+03  -9.1333609168532912e+03  -9.3551004963019059e+03  -9.6179987037298961e+03  -9.7300784651718186e+03  -9.9754044129701324e+03  -9.8833615210553562e+03  -9.3561363788358904e+03  -9.4331456522350945e+03  -9.4616884352437301e+03  -9.6873445178579186e+03  -7.7020634047772992e+03  -6.4966651201496206e+03  -6.4779156507332236e+03  -7.2137441335347530e+03  -6.6409089603875609e+03  -6.2175679305461063e+03  5.1749706052714578e+02  -6.7069880902782088e+03  -1.0047542874811870e+04  -9.6078636337155149e+03  -9.3161499114819999e+03  -9.8012037176569556e+03  -9.9611562103421129e+03  -1.0033607393981913e+04  -1.0178501257897458e+04  -1.0253046531256206e+04  -1.1025193532975325e+04  -1.0610922374711212e+04  -1.0263422052459704e+04  -1.0865453979708433e+04  -1.1675478191143886e+04  -1.1134773783304068e+04  -1.0896731680663570e+04  -1.0939910494885353e+04  -1.1077041927773669e+04  -1.1687235024099271e+04  -1.1076989946332369e+04  -1.0809757520284604e+04  -1.0501926658243501e+04  -1.0881148571297235e+04  -9.6633930072042585e+03  -9.2742007164877014e+03  -8.8557320394457602e+03  -8.4394673588131882e+03  -8.9109717151676887e+03  -9.4728567234895891e+03  -9.9968188134399061e+03  -1.0098412228375233e+04  -8.9932881695355081e+03  -8.1215537239411433e+03  -7.1874177347198629e+03  -8.5308652912098769e+03  -8.4652405804325390e+03  -6.7497345652482827e+03  -6.1791817223906583e+03  -8.2507271745480757e+03  -9.6118987024655962e+03  -7.4120718532330829e+03  -5.4147978514484830e+03  -8.0513447166156666e+03  -1.0946133649786208e+04  -1.0597771602989327e+04  -1.0397984835304149e+04  -1.0394149570530020e+04  -1.0989383959008690e+04  -1.0987200485138606e+04  -1.0971368322792150e+04  -1.0903725469235129e+04  -1.0746463163168970e+04  -1.0386992877470164e+04  -9.9684179140008964e+03  -1.0236882309433782e+04  -1.0387067832456396e+04  -1.0197430537014923e+04  -9.9172613344328129e+03  -1.0094687260292103e+04  -1.0425441487071390e+04  -1.0696953600216975e+04  -1.2333310442640159e+04  -8.5107430912576783e+03  2.6620317598264541e+04  1.7615370725636865e+03  2.7201115999927475e+04  2.6247074151163386e+04  -9.6592671063188700e+03  -9.5727062124148906e+03  -9.4692951299052056e+03  -9.8571180668471352e+03  1.8170344563292128e+04  -1.1065784525417022e+04  -1.1479407606723351e+04  -5.8733757349184325e+03  -1.0440124880996120e+04  2.6518732414006747e+04  1.9488781641122780e+04  -1.0126288294744081e+04  2.7202115890773614e+04  2.7206812993377651e+04  2.3403380685475091e+04  2.7259397957918460e+04  -9.6619908316163564e+03  -9.4121723449257097e+03  -8.8462187229316787e+03  -9.3424724546117868e+03  -9.8590797564304958e+03  -9.8574911406234514e+03  1.6116922602658955e+04  -1.1701976883581840e+04  -1.1168635857111456e+04  -1.1702650951759615e+04  -1.1432159653534491e+04  1.2532240974370177e+04  -7.1347581447224884e+03  -1.0670555850249624e+04  -9.8364781662731129e+03  2.6607113897972573e+04  2.6225590847327934e+04  2.6477454196060786e+04  1.2157008696874274e+04  -1.1165766904051134e+04  -5.4980331504074047e+03  2.7373868604343592e+04  2.6913139018309539e+04  2.7233035934980944e+04  2.1223346597268490e+04  2.4581535434419278e+04  2.7139338224293377e+04  2.7117475845288664e+04  -5.8009885338142085e+03  -9.0875101170070357e+03  -3.7854437990093111e+03  -9.8257576500560208e+03  -9.8578184271817863e+03  -9.8570036101675068e+03  -1.1198398963167940e+04  -1.1047537328330242e+04  -1.1578367293805242e+04  -1.1388290202355489e+04  -1.1719485785483057e+04  -1.1894213962461015e+04  1.5356673048728924e+04  2.9013488073068243e+03  -7.6061992286387585e+03  -1.0573410580234298e+04  -9.0480703248013360e+03  -1.0064742141591461e+04  2.6716454869860911e+04  2.4011534075093095e+04  7.4580731903277301e+03  1.3960614001177681e+04  -1.1743222989883652e+04  -1.0635495051123733e+04  -1.8247510044067685e+03  -