<?xml version="1.0"?>
<VTKFile type="UnstructuredGrid"  version="0.1"  >
<UnstructuredGrid>
<Piece  NumberOfPoints="28763" NumberOfCells="51948">
<Points>
<DataArray  type="Float64"  NumberOfComponents="3"  format="ascii">0.9720240078825346 0.9763779527559056 0  0.9717466003873477 0.984251968503937 0  0.9728665442535617 0.9921259842519685 0  0.9701045738594252 1 0  0.8351266508900538 1 0  0.8346456692913385 0.9995837808194282 0  0.8331679152961444 1 0  0.7362572483465004 1 0  0.7401574803149606 0.996017916785727 0  0.7480314960629921 0.996200006901641 0  0.7559055118110236 0.9958191914025493 0  0.7612613624022402 0.9921259842519685 0  0.7593899383978004 0.984251968503937 0  0.7559055118110236 0.9813052054348165 0  0.7480314960629921 0.9781953279845761 0  0.7437994323329825 0.9763779527559056 0  0.7401574803149606 0.9689287644605623 0  0.7396081213695916 0.968503937007874 0  0.7322834645669292 0.9645662168034497 0  0.7244094488188977 0.9681443148684636 0  0.7165354330708661 0.9654180499104404 0  0.7086614173228346 0.9636939326762113 0  0.7042341015382367 0.968503937007874 0  0.7027348441004528 0.9763779527559056 0  0.7048238360843098 0.984251968503937 0  0.7086614173228346 0.9872456559065795 0  0.7165354330708661 0.9882946958151525 0  0.7244094488188977 0.9890912399803856 0  0.7304429390310569 0.984251968503937 0  0.7322834645669292 0.9796672610942677 0  0.7336667418402056 0.984251968503937 0  0.7322834645669292 0.9867827440490942 0  0.7282939618182676 0.9921259842519685 0  0.7244094488188977 0.9956023204703699 0  0.7222517937319394 1 0  0.7038731312289542 1 0  0.7007874015748031 0.9944958145881654 0  0.6929133858267716 0.9959259351159073 0  0.6898836609238164 1 0  0.4682062177110338 1 0  0.4645669291338583 0.9942698365810992 0  0.4566929133858268 0.9948964758323064 0  0.4488188976377953 0.9935620158559202 0  0.4448702023196394 0.9921259842519685 0  0.4409448818897638 0.9875509899880703 0  0.434809409888492 0.984251968503937 0  0.4330708661417323 0.9838628995248464 0  0.4251968503937008 0.9837500464633387 0  0.4173228346456693 0.9841956639225238 0  0.4171210549964726 0.984251968503937 0  0.4094488188976378 0.9892273960647312 0  0.4045361549908856 0.9921259842519685 0  0.4094488188976378 0.9960300823553053 0  0.4173228346456693 0.9973916006151982 0  0.4251968503937008 0.9970955713021324 0  0.432608781008684 1 0  0.3481212462716141 1 0  0.3464566929133858 0.9946114295482544 0  0.3399178138198822 0.9921259842519685 0  0.3385826771653543 0.9918239476286752 0  0.3369271638934265 0.9921259842519685 0  0.3307086614173229 0.994368760813876 0  0.3228346456692913 0.9931172005177786 0  0.3149606299212598 0.9991048280737491 0  0.3144819866515709 1 0  0.2877784269523628 1 0  0.2834645669291339 0.9987174535859211 0  0.2824077418954995 1 0  0.08475585742742199 1 0  0.08661417322834646 0.9994079209585195 0  0.09395172997661111 0.9921259842519685 0  0.09448818897637795 0.9882350669350214 0  0.09540937243019966 0.984251968503937 0  0.09448818897637795 0.9834074097571538 0  0.08966807329964718 0.9763779527559056 0  0.08661417322834646 0.9742528349573298 0  0.07874015748031496 0.9763590113137461 0  0.0786890053121839 0.9763779527559056 0  0.07228783443726622 0.984251968503937 0  0.07086614173228346 0.9860872316339007 0  0.06299212598425197 0.9869102821209633 0  0.06108119815524605 0.9921259842519685 0  0.06138761692435463 1 0  0.04207021612321394 1 0  0.03986430619005966 0.9921259842519685 0  0.03937007874015748 0.9915768188423517 0  0.03763847468993238 0.9921259842519685 0  0.03748804463038568 1 0  0 1 0  0 0.9615889140514418 0  0.007874015748031496 0.9659995730536574 0  0.01574803149606299 0.9668730945519216 0  0.02362204724409449 0.9608318600383902 0  0.02374811337776619 0.9606299212598425 0  0.02765682233978312 0.952755905511811 0  0.03128099066068193 0.9448818897637795 0  0.02362204724409449 0.9388219356062426 0  0.02031377027303918 0.937007874015748 0  0.01935355048767568 0.9291338582677166 0  0.02159153391202769 0.9212598425196851 0  0.02318614953636329 0.9133858267716536 0  0.02362204724409449 0.9109767533327233 0  0.02442930618454878 0.905511811023622 0  0.02565600246410792 0.8976377952755905 0  0.02362204724409449 0.8949947524601358 0  0.01574803149606299 0.8908013409002677 0  0.01049469247657212 0.8976377952755905 0  0.01260786570674688 0.905511811023622 0  0.00996094236214437 0.9133858267716536 0  0.007874015748031496 0.9185397426680078 0  0.006949920663338532 0.9212598425196851 0  0.007590720213749228 0.9291338582677166 0  0.007156467565690439 0.937007874015748 0  0 0.9424384658875438 0  0 0.7489562944194229 0  0.0005781809702539802 0.7480314960629921 0  0 0.7457820294848162 0  0 0.646147695103089 0  0.007874015748031496 0.6477795458834511 0  0.01479474693804339 0.6456692913385826 0  0.01324783572846548 0.6377952755905512 0  0.01084534527528125 0.6299212598425197 0  0.007874015748031496 0.6270670822441407 0  0.004434927695237188 0.6299212598425197 0  0 0.6326588612966862 0  0 0.3993936909023973 0  0.007874015748031496 0.3980588175139773 0  0.01538369885735957 0.3937007874015748 0  0.01574803149606299 0.3920345821575776 0  0.01993063830389658 0.3858267716535433 0  0.01574803149606299 0.3844462625913245 0  0.007874015748031496 0.3837936042620571 0  0 0.383708174814016 0  0 0.2992208109270351 0  9.831497726510263e-06 0.2992125984251969 0  0.007874015748031496 0.2939206124172651 0  0.01239600089091755 0.2913385826771653 0  0.007874015748031496 0.2862614119572799 0  0 0.287157990271198 0  0 0.2220879192946006 0  0.001078575838928088 0.2204724409448819 0  0 0.2149173079334293 0  0 0 0  0.005499850066325311 0 0  0.003112041994792298 0.007874015748031496 0  0.007874015748031496 0.01140196490622312 0  0.01520456544108121 0.01574803149606299 0  0.01297935753416739 0.02362204724409449 0  0.01574803149606299 0.02826584293404925 0  0.02100521504232812 0.02362204724409449 0  0.01740461247709552 0.01574803149606299 0  0.02362204724409449 0.01246702850205717 0  0.02780694237772667 0.007874015748031496 0  0.02362204724409449 0.004469209368159395 0  0.02061117322918523 0 0  0.04356581887194457 0 0  0.03937007874015748 0.004848149170716199 0  0.03347250388168543 0.007874015748031496 0  0.03937007874015748 0.01205881585832641 0  0.04267887598005592 0.01574803149606299 0  0.04724409448818898 0.02143690215453133 0  0.05511811023622047 0.0192975530580806 0  0.06299212598425197 0.02043039888564074 0  0.06866338259137543 0.02362204724409449 0  0.07086614173228346 0.02507023769371149 0  0.07233229394707584 0.02362204724409449 0  0.07874015748031496 0.01823494212632448 0  0.08173198624820273 0.01574803149606299 0  0.07874015748031496 0.01327218952164398 0  0.07086614173228346 0.01253113320306862 0  0.06299212598425197 0.01330462289837983 0  0.05917522754473106 0.007874015748031496 0  0.05511811023622047 0.003145774860502525 0  0.05169388019332322 0 0  0.1073558283742829 0 0  0.1102362204724409 0.00122690639138715 0  0.1139666612597788 0 0  0.2836867973707888 0 0  0.2834645669291339 0.0003794651136979423 0  0.2768857489315619 0.007874015748031496 0  0.2834645669291339 0.01113512639330776 0  0.2913385826771653 0.01246802233720794 0  0.2992125984251969 0.01215513655916214 0  0.3070866141732284 0.01132001264663001 0  0.3149606299212598 0.01213924231397717 0  0.3228346456692913 0.01221949892390122 0  0.3307086614173229 0.0113428967545238 0  0.3336604772591749 0.007874015748031496 0  0.3307086614173229 0.003558504185637316 0  0.3287176740906983 0 0  0.3841850573984724 0 0  0.3820962045514853 0.007874015748031496 0  0.3858267716535433 0.01217480645469229 0  0.3879707698174504 0.01574803149606299 0  0.3922281850532279 0.02362204724409449 0  0.3937007874015748 0.03078638368436027 0  0.3939817130179128 0.03149606299212598 0  0.3937007874015748 0.03194430254654708 0  0.3894195403840685 0.03937007874015748 0  0.3858267716535433 0.04421750446182413 0  0.3810636654986427 0.04724409448818898 0  0.3789543587093913 0.05511811023622047 0  0.3858267716535433 0.05681642253152159 0  0.3907244219915932 0.05511811023622047 0  0.3937007874015748 0.05415558608030131 0  0.3987407451439735 0.04724409448818898 0  0.4015748031496063 0.04461244294738762 0  0.4082330297110207 0.03937007874015748 0  0.4094488188976378 0.03731619430851927 0  0.4121066688415808 0.03149606299212598 0  0.4094488188976378 0.02719064776649984 0  0.40772555494372 0.02362204724409449 0  0.4056837565908297 0.01574803149606299 0  0.4015748031496063 0.0104060114126625 0  0.398804317326208 0.007874015748031496 0  0.3940419073950464 0 0  0.4274340098758427 0 0  0.4251968503937008 0.0009409178203096939 0  0.4236802005333246 0.007874015748031496 0  0.4240229170520852 0.01574803149606299 0  0.4251968503937008 0.01794452452360705 0  0.4293989736533599 0.02362204724409449 0  0.4299381348169363 0.03149606299212598 0  0.4282573784851194 0.03937007874015748 0  0.4330708661417323 0.04492901618595013 0  0.4377332644697323 0.04724409448818898 0  0.4409448818897638 0.04884751259840165 0  0.4488188976377953 0.05431423120506632 0  0.4524870048067774 0.04724409448818898 0  0.4488188976377953 0.04592447020529444 0  0.4470265433394682 0.03937007874015748 0  0.4459752096419379 0.03149606299212598 0  0.4440747451741227 0.02362204724409449 0  0.4448305166275127 0.01574803149606299 0  0.4439995290707984 0.007874015748031496 0  0.4409448818897638 0.0005474496990279155 0  0.4383268236659633 0 0  0.6803560956662663 0 0  0.6818690706596601 0.007874015748031496 0  0.680842887623915 0.01574803149606299 0  0.6792753630565722 0.02362204724409449 0  0.6771653543307087 0.02707610241218331 0  0.6757897113199091 0.03149606299212598 0  0.6756228178184501 0.03937007874015748 0  0.6755914261577648 0.04724409448818898 0  0.6771653543307087 0.04831706476678121 0  0.6805013484530539 0.04724409448818898 0  0.6814342249136114 0.03937007874015748 0  0.6850393700787402 0.03477166560514412 0  0.6867691355918264 0.03149606299212598 0  0.68904520758178 0.02362204724409449 0  0.6920352030621881 0.01574803149606299 0  0.6890992574801504 0.007874015748
[...]
<PointData  Scalars="f_1711-1"> 
<DataArray  type="Float64"  Name="f_1711-1"  format="ascii">2.5150195721632799e+03  2.8346683117857820e+03  1.4043027457226997e+03  1.0044324965185641e+03  3.3661337202431923e+03  1.6626505559166906e+03  2.3263305861426602e+03  -1.8812720406748505e+02  1.8503098113047977e+02  1.0435923622488222e+03  1.9002832451653751e+03  2.1400268270534693e+03  2.2083657392887808e+03  2.1425555183131005e+03  2.0871661401177189e+03  2.1210732924679555e+03  2.2349343408301656e+03  1.8572721109231975e+03  1.5427398240310433e+03  1.4075673518926676e+03  1.6206333145596516e+03  1.2855609783049574e+03  6.5729883101696373e+02  6.2751821182683125e+02  5.8156167700994354e+02  3.5342084847294029e+02  2.7141677480959032e+02  2.8194147660057695e+02  2.8528932971861650e+02  2.7810421463926764e+02  2.8488130267544261e+02  2.8052090837180469e+02  2.9420331250945424e+02  2.8055781622735009e+02  1.7384739920056518e+02  2.7852593550657122e+02  4.5318970430721049e+02  6.8268662174192184e+02  5.2768727711291353e+02  -3.8703527911690026e+02  -8.1525497686137737e+02  -1.0404348492132010e+03  -9.3101564314776488e+02  -9.1590563031426700e+02  -9.0990718827275089e+02  -9.2497657340701971e+02  -9.8929809115528030e+02  -1.0283518174227308e+03  -9.4286666420628467e+02  -1.2653965266388411e+03  -1.2662757854794520e+03  -1.3828938366645100e+03  -1.3287561171511952e+03  -8.8762864833219066e+02  -2.4746678185905924e+02  2.4887834826524244e+02  -1.1441868866657976e+03  -1.0790982476713648e+03  -1.6448045248972012e+03  -1.5893966816172097e+03  -1.7560434037854395e+03  -1.6557440335535694e+03  -1.7227180670577748e+03  -1.8325034393747596e+03  -2.2232787404681367e+03  -2.0321803566828571e+03  -1.0537348622260042e+03  -3.1188581201638553e+03  1.6574533209791018e+03  -2.8741964052706562e+03  -2.9739597709686896e+03  -2.9751942392189467e+03  -2.9722118926558028e+03  -2.9743159446156060e+03  -2.9490508047133440e+03  -2.9985787206514556e+03  -3.0836489378773517e+03  -3.0494310457066194e+03  -2.8491648227923347e+03  -2.9070664486573146e+03  -2.5856864077988744e+03  -1.2972152647586015e+03  -2.1690316223414817e+02  -1.4137753870224078e+03  -1.9057521238817808e+03  -2.9952548698107221e+03  -3.3110564834241391e+03  -7.6018792294816524e+02  -3.3002976409904813e+03  8.1740696065810687e+02  -2.2424844781162815e+03  -2.9828455585218649e+03  -2.7661692608942485e+03  -2.8640673290705508e+03  -2.9193689867580024e+03  -3.0642799387589462e+03  -3.1471030704941263e+03  -3.1201828900283977e+03  -3.0962074507954139e+03  -3.0885292666820210e+03  -3.1046618598113769e+03  -3.1227911140357000e+03  -3.1301439605890905e+03  -3.2823460794640223e+03  -3.5256947921151245e+03  -3.8648427953569544e+03  -6.1711949542743350e+03  -7.2548605093204078e+03  -7.4994875957593949e+03  -7.8068528489804612e+03  -7.6240161520331612e+03  -5.7738662321372440e+03  -2.2494032341564025e+03  1.8532161665362655e+03  -5.4401962832114805e+03  -1.7383348998452564e+03  -4.2406696827131927e+03  3.0889184021449523e+02  -2.9027289271720156e+03  -4.2037268852059433e+03  -4.1075123161943266e+03  -4.1071321728481844e+03  -4.5590090970742731e+03  -2.9627409460350596e+03  1.5488506886643981e+03  -1.0771210059854775e+03  -2.9302264202609558e+03  -3.9815604067741051e+03  -3.4071535792621548e+03  -3.5690702845062838e+03  -4.2289697248973780e+03  -3.1454380567835556e+03  -2.7197987706362647e+02  -1.1290921645433185e+05  -1.5366908816505875e+04  -4.2909350325278792e+03  -3.9331221337673583e+03  -4.0852340854344943e+03  -5.9283370637483790e+02  -5.9460396820031592e+03  -2.0379348662387451e+03  -3.5885412845661531e+03  -1.9748676997761504e+03  1.2620965157803373e+03  -3.3596506691487079e+03  -5.3233521790999475e+03  -5.1785247750598319e+03  -5.1023128248760213e+03  -4.0211509272064186e+03  -3.4742362473021476e+03  -3.3257024162344646e+03  -3.5986053502732693e+03  -2.5375408451451772e+03  -9.7956134274207159e+02  6.6892912977444189e+02  6.3336799583628567e+02  -8.5523888076160961e+02  -2.6695128399446489e+03  -3.7824258106624607e+03  -3.3367538384835257e+03  -3.5278088383988747e+03  -3.7372110097814734e+03  -3.7348193719307847e+03  -3.9624797628877050e+03  -3.7290670373920780e+03  -3.4688574044480984e+03  -3.5514640725640093e+03  -3.3952579795620154e+03  -3.3419682722496650e+03  -3.2648439587974940e+03  -3.1838571632006742e+03  -3.2545817830813830e+03  -2.1481026728939069e+03  1.9906660540300252e+03  -4.6786632444411025e+03  -1.8963190701395026e+03  -4.0035706995513801e+03  1.1675795091157827e+03  -1.6835683099171561e+03  -2.5193905125696483e+03  -2.1432378407742376e+03  -2.0676604635874937e+03  -2.0476717968255143e+03  -2.0464466959900151e+03  -2.0193929659861562e+03  -1.9592149671186269e+03  -1.9136800147986048e+03  -1.8355084530773656e+03  -1.0594364757265530e+03  1.8525701647108921e+01  2.5428193394069476e+02  -1.2644609710782911e+03  -2.2188038841397902e+03  -1.8432173877076500e+03  -1.8588671095023756e+03  -1.8552841042293358e+03  -1.8581836864986187e+03  -1.8615494440096913e+03  -1.8503870881554542e+03  -1.8473176297582515e+03  -1.8411403659686555e+03  -1.3830534434657782e+03  -1.2641634731133342e+03  -1.1667012598568715e+03  -1.1161497471901946e+03  -1.0822714712099269e+03  -1.0954260833842727e+03  -1.0912841034766207e+03  -1.0632872106392983e+03  -9.8535437994394886e+02  -8.4070385469115331e+02  -8.9562483909850380e+02  -8.2499406708375227e+02  -7.7608566257415498e+02  -3.6405021995585088e+02  2.5176038999729525e+02  6.5693223721198638e+02  -6.9015227264130056e+02  -7.7137007997265528e+02  -8.2819073690632558e+02  -9.5747350412368110e+02  -9.4929478393350541e+02  -9.4414730430698648e+02  -1.0840777858017714e+03  -1.1236716497554826e+03  -1.0770266049889483e+03  -1.0891485523507927e+03  -1.0254226618146997e+03  -4.4521833172595774e+02  -4.5014385404762197e+02  -4.5471622424624599e+02  -4.6166582696404663e+02  -4.6836623387179361e+02  -4.7246894683002114e+02  -4.7242672478210915e+02  -4.6669378874654183e+02  2.7581326300929874e+02  4.2495537580289714e+01  9.6637734038137779e+01  1.6983084088763420e+02  1.4356121639744603e+02  1.4170886881337779e+02  1.2578255781797053e+02  1.0170158712765004e+02  -7.0239968260656394e+00  2.9210223132963580e+02  5.0668885463301797e+02  5.0338544424722801e+02  4.4597318984237091e+02  5.2586798734652871e+02  5.6689824532448858e+02  6.7302188207145355e+02  3.6074229565293410e+02  -1.0156926412348405e+02  1.3655222579623819e+03  5.4106112788233281e+02  6.6777526373605190e+02  2.5692161829861543e+03  3.0557152381265528e+03  3.3453791215461574e+03  3.3850033767351406e+03  3.4723927847464543e+03  3.8484983384580969e+03  4.3342867451681504e+03  4.1698598984433720e+03  4.6023988082810965e+03  1.2221025881695962e+03  3.7484934794237183e+03  4.0778376619182854e+03  3.9487155599156895e+03  3.7793475517438433e+03  3.9534544081880586e+03  4.0927016020568831e+03  3.9814960012979286e+03  3.7930174019528231e+03  3.0305127968298125e+03  3.1453449753128384e+03  2.8054989983874175e+03  2.8018732316069700e+03  2.8636086355895673e+03  2.8566769467793683e+03  2.8623542689545311e+03  2.8612794410208917e+03  2.8515198861366766e+03  2.8954421320279107e+03  2.9411384711620108e+03  2.9462463960067853e+03  2.8985424439753965e+03  2.9546751033731116e+03  3.3946574055953424e+03  2.5747666504223762e+03  2.7028608954881230e+02  3.8146445517073676e+03  3.0624273396383783e+03  3.2199545838144354e+03  3.2690604266955474e+03  3.2675786464927210e+03  3.3256370767996473e+03  3.2897734574837427e+03  3.0178885277891904e+03  2.9606647397776392e+03  2.9997692817140842e+03  2.6591587179748481e+03  3.1537116968053451e+03  3.5568108737005300e+03  5.5679207637321051e+03  1.4846856939692771e+03  3.8603017365381180e+02  3.1356199556101442e+03  3.4969517007154109e+03  3.4544256956388804e+03  3.2517721186161339e+03  2.7240123626113082e+03  2.9307654676313969e+03  3.8387401745885763e+03  3.5281138421043051e+03  3.5190223228588734e+03  3.4241231647729533e+03  3.3261984983503999e+03  3.5328450370136593e+03  3.8102926055030139e+03  3.8306338440534605e+03  4.3531905844240200e+03  2.1927482283392402e+02  3.5454882480810675e+03  3.6497380198900514e+03  3.9132400541408324e+03  5.1769060705976299e+03  2.7484811018997148e+03  3.6348939939309653e+03  2.1405447241550746e+03  3.3348521431960480e+03  4.4381211731979965e+03  6.7181265586266154e+03  5.1141431589245549e+03  3.4514260012426416e+03  3.1080454365005739e+03  2.9633452597942251e+03  2.8188824425063353e+03  2.4026307480644887e+03  2.5792458328285961e+03  2.5285621579912886e+03  2.5718141452832083e+03  2.5854015653451766e+03  2.5791836641781201e+03  2.5042888874988603e+03  2.9194447822196489e+03  3.2876912403008578e+03  3.6107365735653375e+03  4.0634048813425279e+03  4.0606766620482736e+03  4.1903921672712595e+03  3.7834419966472324e+03  5.5407738318526401e+02  6.9901520212247101e+02  6.3695956886470767e+03  -4.0601435379446029e+03  4.2457899804140288e+03  6.1989270205327430e+03  5.1937890614157968e+03  4.3464519141558158e+03  3.6367107794716135e+03  3.3784872502456078e+03  2.7641615163501829e+03  2.7366565511261906e+03  2.6929776516480229e+03  2.6451727936081888e+03  2.5293340701929178e+03  2.3331716029579857e+03  2.4052215428214977e+03  2.3945898885370311e+03  2.4250181651020789e+03  2.4288910353547967e+03  2.4064695563983660e+03  2.4289623445153834e+03  2.6729358215953157e+03  2.7587495665713532e+03  2.7255689602262696e+03  2.7436942704062640e+03  2.7613685186089260e+03  3.1210570167529249e+03  3.1399669508204511e+03  3.1385615022249344e+03  3.1450532681412055e+03  3.1689694606518269e+03  3.2766684782769303e+03  2.7460899936478017e+03  2.7909272427215210e+03  2.4569700145548445e+03  2.5568142439432354e+03  2.5073265252391043e+03  2.5373729871490018e+03  2.5427050551965112e+03  2.5596737778780416e+03  2.7898424034117966e+03  3.1256105979655367e+03  3.2965545200061147e+03  3.1197699584760944e+03  3.0208745054183896e+03  2.6934486804809553e+03  2.6051078227160319e+03  2.4860348857436566e+03  2.8368000395959975e+03  2.6720675992428974e+03  2.8995383139604673e+03  2.5530958559076944e+03  2.3832339818105647e+03  2.3414378004778391e+03  2.7211351316362143e+03  2.6948460651326950e+03  2.1988977332561935e+03  2.3982722545723586e+03  2.7448338501715061e+03  2.6851358705556086e+03  2.3776550167316868e+03  2.2205497406456248e+03  2.3050146578934928e+03  2.4827687401726935e+03  2.7402659530134652e+03  2.8025705393762050e+03  2.7471449528693888e+03  2.7249284562954372e+03  2.3544603759201059e+03  2.4866568399665448e+03  2.6222107663084971e+03  3.3430409796154408e+03  3.4400635496847322e+03  3.3911599798343650e+03  2.8351187837439838e+03  2.7694764676555269e+03  2.7336061759344288e+03  2.7109795617647455e+03  2.5527487201545327e+03  2.4624200330812541e+03  2.5100931906087849e+03  2.5745679369552199e+03  2.7599906299972731e+03  3.1764952036966483e+03  3.3183988452825620e+03  2.9596144822857500e+03  3.1999750100449542e+03  3.1100267914350679e+03  2.6781649814471402e+03  3.0292270309644341e+03  3.0859530093424337e+03  3.1409053352818046e+03  3.0745173885615827e+03  2.6126600395089868e+03  3.2868926993443315e+03  2.5291716088267249e+03  1.9316888923846514e+03  2.6210480404915902e+03  2.7666254648307854e+03  2.6595877143341927e+03  2.5981603331468718e+03  2.6214218210665717e+03  2.6324429180180373e+03  2.6309479668766367e+03  2.6446635659216277e+03  2.7325094918146747e+03  2.6048848102447491e+03  2.2799884828336249e+03  2.3834445773812508e+03  2.3703004371285147e+03  2.3317065251197732e+03  2.2600625327009648e+03  2.3726540969226085e+03  2.4943453988755341e+03  2.4419671248200871e+03  2.5078383021039549e+03  3.5093700764230739e+03  2.7379148533919920e+03  2.0190555289497313e+03  2.6941575128935006e+03  2.8311199291527078e+03  2.8848144496113478e+03  2.7870585674161603e+03  2.6444102477962988e+03  2.5526421009862056e+03  2.5115012996738187e+03  2.5363239500833765e+03  2.6946977324197169e+03  2.7170481632342744e+03  2.6223908155364834e+03  3.2391356930616648e+03  3.5160057130720620e+03  3.3634652084729505e+03  2.6611490218338104e+03  2.4267456708214827e+03  2.5111346360314988e+03  2.8319824640454472e+03  2.5398085152238295e+03  2.2140585107642232e+03  2.8066731807931369e+03  3.0430253088271365e+03  2.5844087900486470e+03  2.4357453570274943e+03  3.3880676872194408e+03  3.5306994292226050e+03  3.4853544889660020e+03  3.4940198565452974e+03  3.4981897494120153e+03  3.5402652741008287e+03  3.1887591730293116e+03  3.0038142128598520e+03  3.1019334843935803e+03  3.1094559244607813e+03  3.0272342437876309e+03  3.0009090953227965e+03  3.0009999885882326e+03  2.9899881434313861e+03  2.9553380142355904e+03  3.2515904954924663e+03  3.1873373031628671e+03  3.2920412515529697e+03  3.2836261206180588e+03  3.2143729656930727e+03  3.0561922822572055e+03  2.8775284577081716e+03  2.9145518234264046e+03  3.1347276590611445e+03  3.0251592714041158e+03  2.9879247715976312e+03  2.6727416576409046e+03  2.8330092130312514e+03  3.4024385724621734e+03  3.6124796788505450e+03  3.3705586634126385e+03  3.0256192947866994e+03  2.8921159652251677e+03  3.0128420552826019e+03  3.0882307451989041e+03  3.1725376099092828e+03  2.9447728430841767e+03  2.7586613973718013e+03  2.8205241962697751e+03  2.3701531884259048e+03  2.4006787400214421e+03  2.4413404474666377e+03  2.6222599668542784e+03  2.8677635646706212e+03  3.1295788817789044e+03  3.6106540792979504e+03  4.2191463798238501e+03  3.5683629228869604e+03  3.4320225323457275e+03  3.4144824822379737e+03  3.3924396848770657e+03  3.1028502449502403e+03  2.7873651142001409e+03  2.7712585924331579e+03  2.7038406835228011e+03  2.6962466495137360e+03  2.7050914066545433e+03  2.7043462314945195e+03  2.6798811532848213e+03  2.6140224601359514e+03  2.8600131611485808e+03  3.1754930038041684e+03  4.3468199624688623e+03  4.8369342444758468e+03  5.0156525201634631e+03  4.9510285973530317e+03  4.9416423287382222e+03  4.9964456667947798e+03  4.9502538368857840e+03  4.6165634177373704e+03  4.2091215990620121e+03  4.2818937409559676e+03  3.5219904191651949e+03  2.6836880172745359e+03  2.7104237036459349e+03  2.7352502631447614e+03  2.7497174837798657e+03  2.7322886230435433e+03  2.7471656162664963e+03  2.7471612526092181e+03  2.6414109165556829e+03  2.5809451159908735e+03  2.6016824722127126e+03  3.0544133275733452e+03  3.1056134208358553e+03  3.1007389459695578e+03  3.0260278781969992e+03  3.1992089899964240e+03  3.1653724453507430e+03  3.1174238440988661e+03  3.3733157664905516e+03  3.2187770911702514e+03  4.6227572863649129e+03  4.7315938260719258e+03  4.4320023478344647e+03  4.3869429872670598e+03  4.5608793148666582e+03  5.0891198883178913e+03  4.4031904145598101e+03  3.6490545505338628e+03  3.5859370010758316e+03  3.4017638288559592e+03  3.1139054080356309e+03  3.4656341174186923e+03  4.2233546921511916e+03  4.4485431765939202e+03  3.4762722140496571e+03  3.9033864028937896e+03  4.1480810306749245e+03  3.6245076450645652e+03  3.2521771959175394e+03  3.4851784632866138e+03  3.4908892989343117e+03  3.8892567022869039e+03  3.6204521373520533e+03  3.4046727008390717e+03  3.1300131362302650e+03  3.4168460162529923e+03  3.3371257734300971e+03  3.5909728330987973e+03  3.5391563568423612e+03  3.1087856511352488e+03  2.9267372310037140e+03  3.0871593257384498e+03  3.3456971501771754e+03  3.7686813724016451e+03  3.3709288617456996e+03  2.9112167128509491e+03  3.4651467770283834e+03  3.9285693444732733e+03  2.9659049881761425e+03  2.8464040401245902e+03  1.3752328361195666e+05  1.3134102968938791e+05  3.9333111187544579e+04  2.6294313609965429e+04  1.6794206636902250e+04  4.8203161553773989e+03  2.8437026167450417e+03  3.0926976019666427e+03  3.0239753984169324e+03  3.0120600566073672e+03  2.9603154475691467e+03  3.0183792958739018e+03  3.0447333937105877e+03  3.0310983079326002e+03  3.0027850229340975e+03  3.8851470973646969e+03  4.1787109633750306e+03  3.6801413068460993e+03  1.2322649676721436e+04  8.8609559790810119e+04  3.4182215191247356e+03  3.5372634998849171e+03  3.2688985342666765e+03  2.9832763481110528e+03  2.9145817320072151e+03  2.8803170345233639e+03  2.9099938820935868e+03  2.8288527722984950e+03  3.2666910279185181e+03  3.2373702012446061e+03  2.0231187465284086e+03  3.8573360621625470e+03  3.4071150692138335e+03  2.4037082986567116e+03  3.5240547058561833e+03  4.3733897929923542e+03  4.5145157421221338e+03  4.3278924568980528e+03  4.4139524039738917e+03  4.2649712978851157e+03  3.3130108376315093e+03  3.0380598576419711e+03  3.1854213430317750e+03  3.2112062321017193e+03  3.0862824219226677e+03  3.0558611880541021e+03  2.7446046365884476e+03  2.5342112874923673e+03  2.5979547313095172e+03  2.6789579689210791e+03  2.7861896626544217e+03  2.7232825132875951e+03  3.4403496692323897e+03  3.5067939518002208e+03  3.2256379139344835e+03  3.0707829341335264e+03  3.6809520392847548e+03  3.4302188845939377e+03  3.1691874556295334e+03  2.9598008873995236e+03  3.0789815269406436e+03  3.5128666985089244e+03  2.6513106645700177e+03  2.7822752501991763e+03  2.5495202331846908e+03  2.5199405736878402e+03  2.5592773335502688e+03  2.9219937105437903e+03  4.0032296244151066e+03  3.3840821708419307e+03  1.5812496992685419e+03  2.3841858336229147e+03  2.7696055455786054e+03  2.9055759414128697e+03  2.7569960311181680e+03  2.5095547840895842e+03  3.3232274453127206e+03  4.3986970608822385e+03  4.3867904423895798e+03  4.3739265487329667e+03  4.4330734088865120e+03  3.8248674231089867e+03  2.8832557184482966e+03  2.6764371426424195e+03  2.7326114003101607e+03  2.5746741413711848e+03  2.6208981233799082e+03  2.6514805261979736e+03  2.5285568878599638e+03  2.4447470166163171e+03  2.4266098691606694e+03  2.5111656581477987e+03  2.4885756351136861e+03  2.3449642730699434e+03  2.2741876884887911e+03  2.1004549585725076e+03  1.9678896973811577e+03  2.1784870811361761e+03  2.2515047396177247e+03  2.2449502492857346e+03  2.1939917946366527e+03  2.0284837102916576e+03  2.2423382061673819e+03  2.2806307347110405e+03  2.4998905085983133e+03  2.5193384052178117e+03  2.3573009816966464e+03  1.9941886280646670e+03  2.1409060118611565e+03  2.5092496868775670e+03  2.5528647493957842e+03  2.6784786403015733e+03  2.6141258038051383e+03  2.5762551834280712e+03  2.7216474882077264e+03  2.4932630890351761e+03  1.9138558494938952e+03  1.8482975063725194e+03  2.0808417067365403e+03  2.3505725801570948e+03  2.3972500052769369e+03  2.4245080856531167e+03  2.7114559196738865e+03  2.5455623954068114e+03  2.2410415924697272e+03  1.9615719963357469e+03  1.8807040117033466e+03  2.0122739626880220e+03  1.8587707274878273e+03  2.3452058623506869e+03  2.7733874135012261e+03  2.7299462354642797e+03  3.1528188845130903e+03  3.1765452127444878e+03  3.1584968507245817e+03  3.1471214401441257e+03  3.1521197068738065e+03  3.1006930047015030e+03  2.9313541566117724e+03  2.9962042799888941e+03  2.8989366603891754e+03  2.8628472839204915e+03  2.8904860604100027e+03  2.9467753972031283e+03  3.0732298953756699e+03  2.9809546946424384e+03  2.3596711773633115e+03  1.8127006607688593e+03  1.9996497469133153e+03  2.0296250833320373e+03  2.0850958235724252e+03  2.1072198658264920e+03  2.1935869174635804e+03  2.4791876730039367e+03  2.5758681704813739e+03  2.6178334490854086e+03  2.6443217475310375e+03  2.6085558838133907e+03  2.6675360803949425e+03  2.8347548056358291e+03  3.0136157730273608e+03  3.1015849511113292e+03  3.0629618374753227e+03  3.1287325358842113e+03  3.1560067046375384e+03  3.2608607592190483e+03  3.2800418750191739e+03  3.2613745169620502e+03  3.2648080287179109e+03  3.2746499441044343e+03  3.3109850605855299e+03  3.9027842138634101e+03  2.8510244775776587e+03  2.6151135045610749e+03  2.9047376603749449e+03  2.8620364753039685e+03  2.8768672334849889e+03  2.8641822646723294e+03  2.8479082480628113e+03  2.7847593004277410e+03  2.5131882546490419e+03  3.3909634911951175e+03  3.2925632264931633e+03  3.0320286610928197e+03  2.9688647567924495e+03  3.0528167944837678e+03  3.5816244192031963e+03  4.1847650916272805e+03  4.1877704184820604e+03  4.0397009898247616e+03  3.7576438833029711e+03  3.3498055757048469e+03  3.369892957178452