<?xml version="1.0"?>
<VTKFile type="UnstructuredGrid"  version="0.1"  >
<UnstructuredGrid>
<Piece  NumberOfPoints="22120" NumberOfCells="39929">
<Points>
<DataArray  type="Float64"  NumberOfComponents="3"  format="ascii">0.8346456692913385 0.006950454029903242 0  0.8325559680629206 0 0  1 0 0  1 0.004339972182899879 0  0.9921259842519685 0.004189525777507789 0  0.9880047805354074 0.007874015748031496 0  0.984251968503937 0.01555576548721147 0  0.9842018336031219 0.01574803149606299 0  0.9833125834081958 0.02362204724409449 0  0.9834925618183273 0.03149606299212598 0  0.984251968503937 0.03727281873629666 0  0.9849401485674031 0.03937007874015748 0  0.9883624498467152 0.04724409448818898 0  0.984251968503937 0.0540053002171158 0  0.9838783344136863 0.05511811023622047 0  0.9763779527559056 0.06215121922944931 0  0.9758574434607974 0.06299212598425197 0  0.9705150507340726 0.07086614173228346 0  0.968503937007874 0.07424206906873082 0  0.9667351162444749 0.07874015748031496 0  0.9643830115088242 0.08661417322834646 0  0.9628469656443477 0.09448818897637795 0  0.9622158928666995 0.1023622047244094 0  0.9625986776931619 0.1102362204724409 0  0.9638611221933893 0.1181102362204724 0  0.9655302631755075 0.1259842519685039 0  0.9673344090011958 0.1338582677165354 0  0.968503937007874 0.1373882608906878 0  0.9763779527559056 0.1388226351254822 0  0.9785068403469727 0.1338582677165354 0  0.9806141361955991 0.1259842519685039 0  0.9839948131532357 0.1181102362204724 0  0.984251968503937 0.117774122070069 0  0.9873525603263562 0.1102362204724409 0  0.9921259842519685 0.1034246429042401 0  0.9927942257703258 0.1023622047244094 0  0.9986571965817909 0.09448818897637795 0  1 0.09241365416756225 0  1 0.2131965498313544 0  0.9921259842519685 0.212786756740037 0  0.9902484581883865 0.2125984251968504 0  0.984251968503937 0.2120550536541362 0  0.9763779527559056 0.2107483967523698 0  0.968503937007874 0.2084521394387668 0  0.9616807353259718 0.2047244094488189 0  0.9606299212598425 0.2030935247982016 0  0.957512856536737 0.1968503937007874 0  0.9573054261988895 0.1889763779527559 0  0.9578542711812708 0.1811023622047244 0  0.9585227360353242 0.1732283464566929 0  0.9589015857464374 0.1653543307086614 0  0.9579355045648874 0.1574803149606299 0  0.952755905511811 0.1524312152362559 0  0.9448818897637795 0.150937167555634 0  0.937007874015748 0.1501812493622486 0  0.9337098977623581 0.1496062992125984 0  0.9291338582677166 0.1488656918283204 0  0.9212598425196851 0.1461963605559246 0  0.9133858267716536 0.1428185732830458 0  0.9064525246956237 0.1417322834645669 0  0.905511811023622 0.1416201451962256 0  0.9048647512495741 0.1417322834645669 0  0.8976377952755905 0.1426167891228761 0  0.889763779527559 0.1444110070632762 0  0.8818897637795275 0.1466242962435229 0  0.8741841501010625 0.1496062992125984 0  0.8740157480314961 0.1496906784408195 0  0.8661417322834646 0.1571903774005413 0  0.8659570846567483 0.1574803149606299 0  0.8639951273198077 0.1653543307086614 0  0.8637431905328634 0.1732283464566929 0  0.8638114812111191 0.1811023622047244 0  0.8631675997960826 0.1889763779527559 0  0.8597016626700589 0.1968503937007874 0  0.8582677165354331 0.1982722547107847 0  0.8503937007874016 0.2017813929296947 0  0.84251968503937 0.2027052988805064 0  0.8346456692913385 0.2025556458081582 0  0.8267716535433071 0.2013966549755375 0  0.8211466514671507 0.1968503937007874 0  0.8188976377952756 0.192010158074495 0  0.8173302250372039 0.1889763779527559 0  0.8119624838581974 0.1811023622047244 0  0.8110236220472441 0.1800201489537557 0  0.8093586402395379 0.1811023622047244 0  0.8053268090397299 0.1889763779527559 0  0.8080339731397194 0.1968503937007874 0  0.8110236220472441 0.1994217979433696 0  0.8187405806126414 0.2047244094488189 0  0.8188976377952756 0.2048727424791619 0  0.8222393194764468 0.2125984251968504 0  0.8238968799180999 0.2204724409448819 0  0.8252299153848301 0.2283464566929134 0  0.8262466095104815 0.2362204724409449 0  0.8265986791219454 0.2440944881889764 0  0.8252858983063092 0.2519685039370079 0  0.8208194358348824 0.2598425196850394 0  0.8188976377952756 0.2636240508901533 0  0.8176721560528392 0.2677165354330709 0  0.8188976377952756 0.2737739264811733 0  0.8194189411823836 0.2755905511811024 0  0.8250879976512229 0.2834645669291339 0  0.8267716535433071 0.2855602949610559 0  0.8331595237505637 0.2913385826771653 0  0.8346456692913385 0.29277640851024 0  0.84251968503937 0.2930325527051372 0  0.8436489959852684 0.2913385826771653 0  0.8436936538945142 0.2834645669291339 0  0.84251968503937 0.2777063543368916 0  0.8418834083375599 0.2755905511811024 0  0.8401374801933624 0.2677165354330709 0  0.8413202990612296 0.2598425196850394 0  0.84251968503937 0.2587406908682562 0  0.8482230190504203 0.2519685039370079 0  0.8503937007874016 0.2508491867130929 0  0.8582677165354331 0.2453474636321537 0  0.859853223649125 0.2440944881889764 0  0.8661417322834646 0.2393231263168889 0  0.8702651101941519 0.2362204724409449 0  0.8740157480314961 0.2327810643107323 0  0.8805902933705225 0.2283464566929134 0  0.8818897637795275 0.2272700137987915 0  0.889763779527559 0.2234565767189504 0  0.8976377952755905 0.2210825355970668 0  0.899902762167252 0.2204724409448819 0  0.905511811023622 0.2178526753043755 0  0.9124220747119511 0.2125984251968504 0  0.9133858267716536 0.2107321860599685 0  0.917234638994655 0.2047244094488189 0  0.9212598425196851 0.1975233087137368 0  0.9291338582677166 0.1996205576364134 0  0.9359311848229517 0.2047244094488189 0  0.937007874015748 0.2056598420419201 0  0.9427024636605315 0.2125984251968504 0  0.9432235902450654 0.2204724409448819 0  0.9406671545222957 0.2283464566929134 0  0.9371851566421372 0.2362204724409449 0  0.937007874015748 0.2365259635864949 0  0.9335017948729205 0.2440944881889764 0  0.9302734769773172 0.2519685039370079 0  0.9291338582677166 0.254531977030918 0  0.9270719160378426 0.2598425196850394 0  0.9238316492180263 0.2677165354330709 0  0.9212598425196851 0.2744309368946395 0  0.920757144919788 0.2755905511811024 0  0.9186911154107643 0.2834645669291339 0  0.9202417796930576 0.2913385826771653 0  0.9212598425196851 0.2922329307209881 0  0.9291338582677166 0.2969219945734051 0  0.9338270635975423 0.2992125984251969 0  0.937007874015748 0.3003193238249643 0  0.9448818897637795 0.3033578863318549 0  0.952755905511811 0.305723722501076 0  0.9606299212598425 0.3065682598254204 0  0.968503937007874 0.3054308041910427 0  0.9763779527559056 0.3021848261198317 0  0.9807062997398699 0.2992125984251969 0  0.984251968503937 0.2955871176649647 0  0.9871391799717522 0.2913385826771653 0  0.9894400918804743 0.2834645669291339 0  0.9903106498656072 0.2755905511811024 0  0.9912131027603036 0.2677165354330709 0  0.9921259842519685 0.264256834974916 0  0.993650479158786 0.2598425196850394 0  0.9996262511884002 0.2519685039370079 0  1 0.2516173355222944 0  1 0.3636217243897878 0  0.9921259842519685 0.3645013073325109 0  0.984251968503937 0.3671989206916243 0  0.9812554836366305 0.3700787401574803 0  0.9813429801522061 0.3779527559055118 0  0.9833825363676992 0.3858267716535433 0  0.984251968503937 0.3885178655796654 0  0.9860004307509833 0.3937007874015748 0  0.9891072001407041 0.4015748031496063 0  0.9921259842519685 0.4071213989457437 0  0.9966216886898417 0.4094488188976378 0  1 0.4105426224660206 0  1 0.4643015514448836 0  0.9973675813092426 0.4566929133858268 0  0.9946792320012704 0.4488188976377953 0  0.9921259842519685 0.4410745000970469 0  0.9920704233709494 0.4409448818897638 0  0.9886173558822325 0.4330708661417323 0  0.984251968503937 0.4263834829990322 0  0.9798301629008325 0.4251968503937008 0  0.9763779527559056 0.4245457656092857 0  0.9733656357661403 0.4251968503937008 0  0.968503937007874 0.4261256684914511 0  0.9606299212598425 0.4296752942377037 0  0.9552309856358162 0.4330708661417323 0  0.952755905511811 0.4368720868681542 0  0.9496629815926068 0.4409448818897638 0  0.9503567854147639 0.4488188976377953 0  0.952755905511811 0.4524283410781022 0  0.9546143536431555 0.4566929133858268 0  0.9601488330312962 0.4645669291338583 0  0.9606299212598425 0.465197144168308 0  0.9658772818612545 0.4724409448818898 0  0.968503937007874 0.4761954054177634 0  0.972561046925022 0.4803149606299212 0  0.9763779527559056 0.4839948350233195 0  0.984251968503937 0.486471818933796 0  0.9921259842519685 0.4856806089628787 0  1 0.4807493095549469 0  1 0.6016358618045941 0  0.9921259842519685 0.6050926246587386 0  0.9913413559060315 0.6062992125984252 0  0.9882281287144318 0.6141732283464567 0  0.9870010594409461 0.6220472440944882 0  0.9867414569106833 0.6299212598425197 0  0.9874347195853412 0.6377952755905512 0  0.9903066523001008 0.6456692913385826 0  0.9921259842519685 0.6477950036455375 0  0.9980790971562117 0.6535433070866141 0  1 0.6547999050541462 0  1 0.7140288274736333 0  0.997076324554525 0.7165354330708661 0  0.9921259842519685 0.7206404169839853 0  0.9852528475286605 0.7244094488188977 0  0.984251968503937 0.7250321159619857 0  0.9763779527559056 0.7269701090934879 0  0.968503937007874 0.7262089538083508 0  0.9618687556935148 0.7244094488188977 0  0.9606299212598425 0.7241359927815522 0  0.952755905511811 0.7218995981670234 0  0.9448818897637795 0.7201658117615849 0  0.937007874015748 0.720572916248025 0  0.9313647651491045 0.7244094488188977 0  0.9291338582677166 0.7260629461293413 0  0.9242139051122682 0.7322834645669292 0  0.9212598425196851 0.7361094942433142 0  0.9182003013370631 0.7401574803149606 0  0.9133858267716536 0.7471353116596449 0  0.9125653766653553 0.7480314960629921 0  0.9075014962986907 0.7559055118110236 0  0.905511811023622 0.7635655903791885 0  0.9054146302956876 0.7637795275590551 0  0.905511811023622 0.7640864126513389 0  0.9073604184064854 0.7716535433070866 0  0.9133858267716536 0.7774732657901736 0  0.9156582529544944 0.7795275590551181 0  0.9212598425196851 0.7830289553408896 0  0.9285351936110148 0.7874015748031497 0  0.9291338582677166 0.7878359797564368 0  0.937007
[...]
<PointData  Scalars="f_294-1"> 
<DataArray  type="Float64"  Name="f_294-1"  format="ascii">6.7048659818605720e+03  1.0595469678301620e+03  7.4986748906873581e+03  -7.2081455102894597e+02  3.4288374540233990e+03  5.8634657909085790e+03  5.6167946621394040e+03  5.4798849032903290e+03  5.4499594311150722e+03  5.4173992534209174e+03  5.3984767521222038e+03  5.3808129405152076e+03  5.4233534547841837e+03  5.4467031470325355e+03  5.4571895352213915e+03  5.4812376605414165e+03  5.4421098563455889e+03  5.4319457104563953e+03  5.3843639953371230e+03  5.3260635462414157e+03  5.2627715779002847e+03  5.1937932512554889e+03  5.1327137303241343e+03  5.0993419536897318e+03  5.0803254878490188e+03  5.0817318620789729e+03  5.0924692614416526e+03  4.6252013559631005e+03  4.1627392422743324e+03  4.1878287959057925e+03  4.2313865993752679e+03  4.2246401373798280e+03  4.2227470257555287e+03  4.2102079654913305e+03  4.1857469150218194e+03  4.1491228495618097e+03  2.9469026973008022e+03  -2.7068291171586889e+03  9.1552885421960468e+02  1.4697429323199176e+03  4.8132652170489364e+03  4.1286967539338675e+03  4.1511441831941447e+03  4.1385973751455322e+03  4.1270524824222030e+03  4.1055942597450230e+03  4.0959831716434737e+03  4.0870085924314362e+03  4.1069908513671853e+03  4.1427228324018406e+03  4.1453252275900495e+03  4.3352328475121822e+03  4.9186866850864326e+03  5.1327044911414869e+03  5.1406831696745840e+03  5.1477828750983217e+03  5.1448993818972376e+03  5.1638608103881015e+03  5.1668471210587804e+03  5.1524675639408224e+03  5.0889196844500621e+03  5.0527673139710187e+03  5.0104713589129678e+03  4.9565805280156728e+03  4.9198200304982165e+03  4.9192743410431476e+03  4.8150254583713004e+03  4.8432122588998909e+03  4.7764147322599320e+03  4.8298345848501422e+03  4.8573667540576689e+03  4.8736511644891871e+03  4.8793095125336113e+03  4.8823849158447647e+03  4.8792287704289065e+03  4.8824820949338173e+03  4.8872365929436946e+03  4.8953990587127673e+03  4.8996943124029895e+03  4.8994056805904111e+03  4.9076364865781643e+03  4.9243360273516910e+03  5.1098713121539740e+03  5.1623444484097472e+03  5.0458394140966011e+03  4.6591764531344161e+03  3.3383296688133792e+03  2.2880158310208535e+03  2.2614095725628995e+03  2.3878370983997243e+03  2.3556761851387614e+03  2.1458313615654129e+03  1.8434389870900957e+03  1.6409622551404816e+03  1.5502681020093876e+03  1.5721926725009487e+03  1.4836548984559010e+03  1.4057821136432256e+03  1.0629673572834176e+03  7.7694236818099853e+02  6.7487369928770624e+02  7.8102565474986204e+02  7.4761773003207941e+02  7.8267199073671816e+02  7.1046135211921990e+02  6.9423485945299296e+02  6.1084442175843026e+02  6.5171578322951257e+02  6.5878602063977166e+02  6.6151717665337515e+02  6.6569069792533628e+02  6.6766221874797839e+02  6.6776586711080392e+02  6.6952080747324601e+02  6.6996190103275524e+02  6.7105610934754611e+02  6.7121682678018385e+02  6.7198065469542064e+02  6.7261826179064099e+02  6.7325897315754594e+02  6.7429923420287071e+02  6.7424455138586734e+02  6.7498931459210678e+02  6.7562342350883330e+02  6.7600007505360452e+02  6.7642297611786591e+02  6.7660868081941999e+02  6.7655627548703876e+02  6.7648853311558980e+02  6.7647191124638505e+02  6.7646944876521559e+02  6.7644981584745074e+02  6.7644917102168233e+02  6.7643231250235340e+02  6.7641243467533036e+02  6.7637949157665469e+02  6.7634003295362186e+02  6.7635106279697663e+02  6.7652166278224558e+02  6.7713084923317854e+02  6.7761700742967400e+02  6.7852501385964490e+02  6.8230471120389836e+02  6.8765628869513716e+02  6.9092788426899676e+02  7.0353687989036780e+02  6.9430857684207342e+02  5.9423622085071156e+02  5.6839673557360481e+02  5.3859309093379341e+02  5.2680785171251193e+02  5.0900803009295259e+02  4.8791668552134911e+02  4.7343041773398357e+02  4.7267623849627915e+02  4.7815615450987303e+02  4.8180868222207391e+02  4.8285428812226331e+02  4.8332174573928199e+02  4.8288541841349894e+02  4.8249695473989300e+02  4.8194313919553542e+02  4.8165560730067631e+02  4.8156419589910831e+02  3.0001178042149377e+02  -2.4710144586375057e+02  2.1052992741409390e+01  4.0396558438494736e+02  5.7832104987787443e+02  4.9896559247495497e+02  4.5799978120567198e+02  4.5446610133609585e+02  4.5442585573068698e+02  4.5416145686910113e+02  4.5640921659023428e+02  4.6998382141450929e+02  3.9965344729839234e+02  3.9915050753342587e+02  -2.2853406824801351e+02  3.9559669346420850e+02  4.3514263164384647e+02  4.4228381093524115e+02  4.4257372587346026e+02  4.4379343612537821e+02  4.4379065347576727e+02  4.5800608357864405e+02  4.6152291247898893e+02  4.6974807388467286e+02  4.6807773474286921e+02  4.6889784569142319e+02  4.6111861524310149e+02  4.5869521300244867e+02  4.3159771620061599e+02  3.8211226337089016e+02  3.6935115198528820e+02  3.7064103108235884e+02  3.4064670235499455e+02  3.3715064189188661e+02  2.9578906076600765e+02  2.4620024111566178e+02  1.6618928180374991e+02  8.8841566083735142e+00  -1.3312571510403748e+02  -7.7702482966406393e+01  3.4006728911634511e+01  -9.9272950701173002e+01  -1.4776328878278852e+02  -4.8876969404363564e+02  -3.1466302808211287e+02  -3.2932166708441309e+02  -3.5303564967368624e+02  -3.9538044279817285e+02  -4.4719548573894139e+02  -4.8509695540887600e+02  -4.5483766421369916e+02  -6.0252847495797698e+02  -3.7668775721617885e+02  -4.0961795600693478e+02  -5.0103482633896721e+02  -4.6719382675603549e+02  -4.7047099855687514e+02  -4.6577558326386730e+02  -4.6262681132393300e+02  -4.5976241084319338e+02  -4.5946627534349727e+02  -4.5564777428821225e+02  -4.4741964693169581e+02  -4.5767885867617042e+02  -4.7781214056813167e+02  -5.0081157623364504e+02  -5.1918855488716542e+02  -5.1769994519544866e+02  -5.2730997536859331e+02  -5.2466319961214185e+02  -5.2032832253283300e+02  -5.4918021971084590e+02  -4.5217742955624595e+02  -7.5313810108184646e+02  -9.9628702371219413e+02  -1.0340021260291471e+03  -1.1100765085459648e+03  -1.0907423595771820e+03  -1.0805478049132473e+03  -1.0466458147769756e+03  -1.0406202476654346e+03  -1.0126728165757515e+03  -1.0095105919862527e+03  -9.9255103473208487e+02  -9.7631963446656368e+02  -9.5644344284913484e+02  -9.5454275535015813e+02  -9.1299870382774907e+02  -8.9952336430863454e+02  -8.8152313457878631e+02  -8.9050853533785630e+02  -9.6858287205137287e+02  -1.1807971850736596e+03  -1.4502504770558430e+03  -1.7826396667482265e+03  -1.8490217666141064e+03  -1.9660058829212169e+03  -1.9534413770330627e+03  -1.9803507712043854e+03  -1.9470552953154270e+03  -1.9245872549720493e+03  -1.9069038673567877e+03  -1.8984198131814958e+03  -1.8921434238544525e+03  -1.8926447195650471e+03  -1.8887708591127473e+03  -1.8825993836653201e+03  -1.8750629714616873e+03  -1.8665896137890634e+03  -1.8558721949699955e+03  -1.8456299395121473e+03  -1.8099973386485719e+03  -1.8600364989378654e+03  -1.8894661694202957e+03  -2.2410129596496322e+03  -2.0849590929911806e+03  -2.3098084967430746e+03  -2.3282245304717908e+03  -2.3690599697202611e+03  -2.3620537851114609e+03  -2.2959810720250734e+03  -2.7945330700686122e+03  -9.4051854242010404e+02  8.4441704266356260e+02  -3.4122035444329604e+03  -5.9039233223551473e+03  -1.3102031532270441e+03  -1.7235625689000158e+03  -1.6065526239499752e+03  -1.2195223953247601e+03  -1.6249451815825189e+03  -1.5191611753611464e+03  -1.4839597394864118e+03  -1.4232347735249937e+03  -1.3784491741489817e+03  -1.4577173419482433e+03  -1.2561003631527810e+03  -1.2595843858871024e+03  -1.2603510365763498e+03  -1.2624625651550618e+03  -1.2632687176782765e+03  -1.2540706024181072e+03  -1.2577880402400781e+03  -1.2533268876043740e+03  -1.2503271527961640e+03  -1.2427341481302151e+03  -1.2361503384138846e+03  -1.2368967113567796e+03  -1.2286886606524724e+03  -1.6027316598720324e+03  -7.5190714047372876e+02  -8.0118772213312104e+02  -4.1413731036418220e+01  -1.7432311613439856e+03  -1.4153638943066242e+03  -1.3044920983895665e+03  -1.2409013855360970e+03  -1.2155969060577690e+03  -1.1602445720276382e+03  -1.1824170726255925e+03  -1.4026062471793532e+03  -1.5092249733140538e+03  -1.5130105828442597e+03  -1.5311908862370708e+03  -1.7155557507713224e+03  -1.2549539499601735e+03  1.7363747364879066e+02  -9.6565100714798859e+02  -1.5799014109823506e+03  -1.7679705481547533e+03  -1.5848281761629783e+03  -1.5421299946438091e+03  -1.5112311188794922e+03  -1.4954215353441684e+03  -1.4929114903539019e+03  -1.5073553704286237e+03  -1.5150700279966316e+03  -1.5317721957586625e+03  -1.5308945526022183e+03  -1.5262698443796853e+03  -1.5157063273285669e+03  -1.4149664278741702e+03  -1.3235808272157369e+03  -1.1132452709111058e+03  -1.2152114843154809e+03  -1.2212831888153132e+03  -1.1758863651653212e+03  -1.1708773245320147e+03  -1.1454945687198651e+03  -1.1400404670450757e+03  -1.1320648440495088e+03  -1.1287537081112671e+03  -1.1387286664931989e+03  -1.1502104828288680e+03  -1.1614733398837730e+03  -1.1842876160098403e+03  -1.1855158866644199e+03  -1.2122665943065372e+03  -1.1282508626843278e+03  -1.1239027519232054e+03  -1.0074187037029875e+03  -8.9686348762810553e+02  -8.6251484359155018e+02  -6.0579967094300957e+02  -2.2546481889612610e+02  -3.2763304199603635e+02  -3.4193709141402002e+02  -4.0549996400818759e+02  -4.3005899873475909e+02  -4.4212313199698008e+02  -4.5124162501499069e+02  -4.5162793854209269e+02  -4.5136101383687776e+02  -4.4785987271224593e+02  -4.4472094821228313e+02  -4.4472121012292729e+02  -4.4347402743273670e+02  -4.4239804384153280e+02  -4.4128750614435586e+02  -4.4014400685271124e+02  -4.3890079792638545e+02  -4.3781117596551042e+02  -4.3832892197860781e+02  -4.3682477979940575e+02  -4.3423072853022467e+02  -4.3189519563464751e+02  -4.3021254855102870e+02  -4.2519463023804144e+02  -4.2012510007469183e+02  -4.1802133824582603e+02  -4.0773212565122242e+02  -4.0341152488471033e+02  -4.6057449851786879e+02  -6.9697682835735679e+02  -8.7944756280570482e+02  -8.9928324748349519e+02  -1.2013966384076514e+03  -1.2146853046197818e+03  -5.4330234492454849e+02  -7.7739264254203920e+02  -8.7531790640898998e+02  -6.6563705864800863e+02  -3.8531106942813909e+02  -4.1613066365210693e+02  -4.1971058440626575e+02  -4.2212928155383258e+02  -4.3285443927715954e+02  -4.4251360923263690e+02  -4.4794932498234459e+02  -4.5013848703860970e+02  -4.5415759566530733e+02  -4.5735655015874829e+02  -4.5827131536453521e+02  -4.5480839804968161e+02  -4.5111958861044315e+02  -4.4406826051335901e+02  -4.3213451449348702e+02  -4.2486718301150137e+02  -4.2715630780461544e+02  -4.2572816776408473e+02  -4.2628550060112667e+02  -4.2630132006596290e+02  -4.2666122011366798e+02  -4.2571912824035405e+02  -4.2966751694006365e+02  -4.2847742219035831e+02  -4.3083382858734615e+02  -4.3491111986811757e+02  -4.3235306623819048e+02  -4.4439253722528383e+02  -4.4217354481571635e+02  -4.4122941251401676e+02  -4.5749075079065830e+02  -4.4588301996039951e+02  -4.7589463254998441e+02  -4.4402216084222925e+02  -3.8201225170184171e+02  -8.3934773616006896e+02  -2.0807238178837858e+02  -3.0444269960156034e+03  -8.0618495925632569e+03  -8.2215039962984501e+03  -7.9961906330345846e+03  -8.0866166251419190e+03  -8.0593280755007481e+03  -8.0324846144184794e+03  -8.0161082499966942e+03  -7.9885748181457702e+03  -7.9539050858843875e+03  -7.9327361983533438e+03  -7.9205198032308554e+03  -7.9278751410922687e+03  -7.8622663374285376e+03  -8.0427821307288568e+03  -8.8463580512130047e+03  -9.4704840121124889e+03  -9.6927350074381757e+03  -9.6574579441227943e+03  -9.7079186464504182e+03  -9.7435089431230099e+03  -9.7309402550428731e+03  -9.7215212486246637e+03  -9.6904758191365636e+03  -9.6513875459474275e+03  -9.5984992384375819e+03  -9.5230525114186403e+03  -9.4679625489373029e+03  -9.4553428420499367e+03  -9.4343596302221031e+03  -9.4390968546735294e+03  -9.4383324824712981e+03  -9.4438056458007541e+03  -9.4468938358749547e+03  -9.4470634039625456e+03  -9.4458522822334526e+03  -9.4449771652379586e+03  -9.4448942977451225e+03  -9.4451644874870362e+03  -9.4457395375097749e+03  -9.4464936533940127e+03  -9.4471280081400328e+03  -9.4478373826613952e+03  -9.4488824556708514e+03  -9.4493957647354655e+03  -9.4494055101042959e+03  -9.4493586406104550e+03  -9.4499297670879059e+03  -9.4458907620216833e+03  -9.4569751428788004e+03  -9.4528827393465235e+03  -9.4212302654763243e+03  -9.3705129108938108e+03  -9.3575333833132481e+03  -9.3970023351390246e+03  -9.4626385586947454e+03  -9.3560444246116222e+03  -9.6875406464210664e+03  -5.7626399831604094e+03  4.5547582211410754e+03  -5.8231396872432188e+03  -7.4188981346010305e+03  -1.0343377861728226e+04  -9.4229202026532239e+03  -9.4129182850858888e+03  -9.5429799326806988e+03  -9.7619710879137529e+03  -9.7230730209167250e+03  -9.7657673321157909e+03  -9.7595082981535088e+03  -9.7611956418448699e+03  -9.7604023500912026e+03  -9.7597015936418866e+03  -9.7591059569624049e+03  -9.7597483874348327e+03  -9.7582207380921500e+03  -9.7530959942724148e+03  -9.7370393963859842e+03  -9.7504155562910164e+03  -9.8198709998627528e+03  -9.8730575655324101e+03  -9.8850830638864645e+03  -1.0406534151924439e+04  -8.9544598160625465e+03  -6.2661510594042165e+03  -1.3289717815599388e+04  -6.8190949063579619e+03  -8.2216394532119011e+03  -1.0877171822989532e+04  -9.7298123915167325e+03  -9.6790698968770430e+03  -9.6349112006303658e+03  -9.6331421119254101e+03  -9.6228058847421507e+03  -9.6169189007610094e+03  -9.6157134366331811e+03  -9.6140413478049686e+03  -9.6117937567929821e+03  -9.6110076565581458e+03  -9.6095527993341493e+03  -9.6089342761196840e+03  -9.6087952953929762e+03  -9.6090289866521925e+03  -9.6091576231489871e+03  -9.6093478540433116e+03  -9.6095262302657356e+03  -9.6095913583778110e+03  -9.6095847378623766e+03  -9.6095927694333932e+03  -9.6096135419388556e+03  -9.6096505078912742e+03  -9.6096821906223922e+03  -9.6097616511148262e+03  -9.6098880839058347e+03  -9.6099160495512187e+03  -9.6101027545820725e+03  -9.6103527421703911e+03  -9.6102631514668410e+03  -9.6096593708532509e+03  -9.6084310370530075e+03  -9.6077277937853560e+03  -9.6070682197503884e+03  -9.6060517983244845e+03  -9.6045697279991055e+03  -9.6043399288593846e+03  -9.6044170358263018e+03  -9.6046075032872086e+03  -9.6049668779487693e+03  -9.6052267143804220e+03  -9.6058976164031028e+03  -9.6066378753721692e+03  -9.5914372660366698e+03  -7.7006827255066883e+03  -7.7207600127729274e+03  -7.7209311201429782e+03  -7.7209199826805898e+03  -7.7211387421847148e+03  -7.7209532122809187e+03  -7.7211869773685758e+03  -7.7210349493918220e+03  -7.7209739146558668e+03  -7.7208663866245161e+03  -7.7209513721431322e+03  -7.7208499268986889e+03  -7.7206583407023945e+03  -7.7203662215772865e+03  -7.7201152492993906e+03  -7.7203529758703726e+03  -7.7205529769589539e+03  -7.7205036103015973e+03  -7.7205172945436216e+03  -7.7205121158150605e+03  -7.7205126653489679e+03  -7.7205125020092310e+03  -7.7205128793262793e+03  -7.7205130937257636e+03  -7.7205140781112232e+03  -7.7205171468158460e+03  -7.7205119630819017e+03  -7.7205115122601919e+03  -7.7205113225238028e+03  -7.7205101567111024e+03  -7.7205114297536966e+03  -7.7205081356238443e+03  -7.7205037998420185e+03  -7.7205068962832211e+03  -7.7205168764093951e+03  -7.7205251762080234e+03  -7.7205333423167249e+03  -7.7205312234183657e+03  -7.7205361189803625e+03  -7.7205289620675085e+03  -7.7205288451704419e+03  -7.7205325292665766e+03  -7.7205310835741857e+03  -7.7205311645126476e+03  -7.7205326620082333e+03  -7.7205308805868208e+03  -7.7205239808629176e+03  -7.7208332761116653e+03  -7.7210121926346201e+03  -7.7207616498161478e+03  -7.7202711567683782e+03  -7.7198326032501354e+03  -7.7190305580560671e+03  -7.7171378589927926e+03  -7.7136258383211707e+03  -7.7098908708453228e+03  -7.7029766975675002e+03  -7.6995216322665792e+03  -7.7005761963771147e+03  -7.7178538899886016e+03  -7.7215023956675495e+03  -7.7445365779782378e+03  -7.7367506834778733e+03  -7.8004975081802213e+03  -7.8595794582103035e+03  -8.5357878823652500e+03  -5.4676785456139723e+03  -8.0377524592320697e+02  -5.1244831926048528e+02  -5.1062008261112322e+02  -4.2260926919172624e+02  -4.4038586295064346e+02  -4.0533010395818980e+02  -4.2405462171956879e+02  -3.7972130355158265e+02  -3.8403917749053920e+02  -3.5237987619773969e+02  -3.5237387926272402e+02  -3.6321208019299740e+02  -3.7158897493764971e+02  -3.8566985471655227e+02  -4.0309593009768645e+02  -4.0878497323329475e+02  -4.0914059220117241e+02  -4.0192159768481724e+02  -3.7503010917733013e+02  -3.4603262619045438e+02  -3.2705853595565287e+02  -3.2972992732351776e+02  -3.2704874419995707e+02  -3.4794200447096739e+02  -3.6410782626557273e+02  -3.7792843199867633e+02  -3.9693549289420912e+02  -4.2259608891411489e+02  -4.2606020088167389e+02  -3.7596765485625423e+02  -2.5587704833856534e+02  -1.0107269418909944e+02  6.9314091781609704e+01  2.3575915433657985e+02  4.6201159794275060e+02  7.4525741733400616e+02  8.7761120377476993e+02  1.0101916889227742e+03  1.0823210899488909e+03  1.0831447143021214e+03  1.0523158679118335e+03  1.0181079152740173e+03  1.0050722976233604e+03  9.9696200530812132e+02  9.9569391626484969e+02  9.9439360203716569e+02  9.9376593622036035e+02  9.9418299604050299e+02  9.9450057224248292e+02  9.9493058191080934e+02  9.9231209951195819e+02  9.9104116108744779e+02  9.8537136468433596e+02  9.3923152224011085e+02  9.3606062558823783e+02  9.9280743876250438e+02  1.0348457987560282e+03  1.0914602948658019e+03  1.1167316957892692e+03  1.1410898586691103e+03  1.1504291069645178e+03  1.1513133143484845e+03  1.1506329504058419e+03  1.1503036027589194e+03  1.1463086732860625e+03  1.1450614229070306e+03  1.1423162188099889e+03  1.1391501607072257e+03  1.1367046147318356e+03  1.1349108749645973e+03  1.1331494020407101e+03  1.1320451144345241e+03  1.1327940200422236e+03  1.1340963488464563e+03  1.1367887860506435e+03  1.1389112648299915e+03  1.1400330945512401e+03  1.1426016595034391e+03  1.1441048804875063e+03  1.1564439364851683e+03  1.1784264612713632e+03  1.2055434014622215e+03  1.2404117985175174e+03  1.1961299483101966e+03  1.1805992187442469e+03  1.1773923686731330e+03  1.1832412400189228e+03  1.1837465829016921e+03  1.1859133825225958e+03  1.1866330570250393e+03  1.1870444067195883e+03  1.1879213199917767e+03  1.1885441889353701e+03  1.1890478282156378e+03  1.1894443245280850e+03  1.1891977546236446e+03  1.1895721380763541e+03  1.1901388554664807e+03  1.1912445048997304e+03  1.1923318037099905e+03  1.1928448535523853e+03  1.1932053744325826e+03  1.1946349948351774e+03  1.1971227088925261e+03  1.2014909612112529e+03  1.2125750344651444e+03  1.2039191460954671e+03  1.1797866237915352e+03  1.1311501703910533e+03  1.1116842015557781e+03  1.0950068927088382e+03  1.1024024696944546e+03  1.1071105827765230e+03  1.1110600212111706e+03  1.1133572090646014e+03  1.1163269994173158e+03  1.1170472094477470e+03  1.1200791961147399e+03  1.1267075490043453e+03  1.1088401958286640e+03  1.1195421631021775e+03  5.0454755966174338e+02  -4.7804745012171634e+02  1.0151907152531330e+03  1.0649951408654904e+03  1.1786221103622975e+03  1.0698728132713934e+03  7.1671655559795727e+02  6.8582586232408801e+02  1.2868257962036107e+03  1.1428163037430186e+03  1.1393986854946070e+03  1.1402431758529872e+03  1.1468447993038430e+03  1.1481507704449123e+03  1.1780555020360766e+03  1.1742530169535512e+03  1.2175005110602126e+03  1.2052020084823353e+03  1.2131475785326679e+03  1.2153070334545480e+03  1.2251204220105010e+03  1.2237342363854195e+03  1.2266023809909782e+03  1.2254966740548575e+03  1.2229743424658059e+03  1.2205810516611750e+03  1.2157915265664810e+03  1.2088959521411439e+03  1.2012926147192511e+03  1.2091222881511840e+03  1.2036022974893287e+03  1.2534500982054931e+03  1.2735692924003042e+03  1.2984194478725885e+03  1.3781570952842806e+03  9.1673888289860417e+02  1.7652052158028681e+02  -4.7892302017822567e+02  1.2489264677001959e+03  1.3586305476531031e+03  1.3340694030860286e+03  1.3734142207956766e+03  1.5077429329124111e+03  1.5609283185422266e+03  1.6044815386014589e+03  1.6119258898646260e+03  1.6232611518786578e