<?xml version="1.0"?>
<VTKFile type="UnstructuredGrid"  version="0.1"  >
<UnstructuredGrid>
<Piece  NumberOfPoints="1089" NumberOfCells="2048">
<Points>
<DataArray  type="Float64"  NumberOfComponents="3"  format="ascii">0 0 0  0.03125 0 0  0.0625 0 0  0.09375 0 0  0.125 0 0  0.15625 0 0  0.1875 0 0  0.21875 0 0  0.25 0 0  0.28125 0 0  0.3125 0 0  0.34375 0 0  0.375 0 0  0.40625 0 0  0.4375 0 0  0.46875 0 0  0.5 0 0  0.53125 0 0  0.5625 0 0  0.59375 0 0  0.625 0 0  0.65625 0 0  0.6875 0 0  0.71875 0 0  0.75 0 0  0.78125 0 0  0.8125 0 0  0.84375 0 0  0.875 0 0  0.90625 0 0  0.9375 0 0  0.96875 0 0  1 0 0  0 0.03125 0  0.03125 0.03125 0  0.0625 0.03125 0  0.09375 0.03125 0  0.125 0.03125 0  0.15625 0.03125 0  0.1875 0.03125 0  0.21875 0.03125 0  0.25 0.03125 0  0.28125 0.03125 0  0.3125 0.03125 0  0.34375 0.03125 0  0.375 0.03125 0  0.40625 0.03125 0  0.4375 0.03125 0  0.46875 0.03125 0  0.5 0.03125 0  0.53125 0.03125 0  0.5625 0.03125 0  0.59375 0.03125 0  0.625 0.03125 0  0.65625 0.03125 0  0.6875 0.03125 0  0.71875 0.03125 0  0.75 0.03125 0  0.78125 0.03125 0  0.8125 0.03125 0  0.84375 0.03125 0  0.875 0.03125 0  0.90625 0.03125 0  0.9375 0.03125 0  0.96875 0.03125 0  1 0.03125 0  0 0.0625 0  0.03125 0.0625 0  0.0625 0.0625 0  0.09375 0.0625 0  0.125 0.0625 0  0.15625 0.0625 0  0.1875 0.0625 0  0.21875 0.0625 0  0.25 0.0625 0  0.28125 0.0625 0  0.3125 0.0625 0  0.34375 0.0625 0  0.375 0.0625 0  0.40625 0.0625 0  0.4375 0.0625 0  0.46875 0.0625 0  0.5 0.0625 0  0.53125 0.0625 0  0.5625 0.0625 0  0.59375 0.0625 0  0.625 0.0625 0  0.65625 0.0625 0  0.6875 0.0625 0  0.71875 0.0625 0  0.75 0.0625 0  0.78125 0.0625 0  0.8125 0.0625 0  0.84375 0.0625 0  0.875 0.0625 0  0.90625 0.0625 0  0.9375 0.0625 0  0.96875 0.0625 0  1 0.0625 0  0 0.09375 0  0.03125 0.09375 0  0.0625 0.09375 0  0.09375 0.09375 0  0.125 0.09375 0  0.15625 0.09375 0  0.1875 0.09375 0  0.21875 0.09375 0  0.25 0.09375 0  0.28125 0.09375 0  0.3125 0.09375 0  0.34375 0.09375 0  0.375 0.09375 0  0.40625 0.09375 0  0.4375 0.09375 0  0.46875 0.09375 0  0.5 0.09375 0  0.53125 0.09375 0  0.5625 0.09375 0  0.59375 0.09375 0  0.625 0.09375 0  0.65625 0.09375 0  0.6875 0.09375 0  0.71875 0.09375 0  0.75 0.09375 0  0.78125 0.09375 0  0.8125 0.09375 0  0.84375 0.09375 0  0.875 0.09375 0  0.90625 0.09375 0  0.9375 0.09375 0  0.96875 0.09375 0  1 0.09375 0  0 0.125 0  0.03125 0.125 0  0.0625 0.125 0  0.09375 0.125 0  0.125 0.125 0  0.15625 0.125 0  0.1875 0.125 0  0.21875 0.125 0  0.25 0.125 0  0.28125 0.125 0  0.3125 0.125 0  0.34375 0.125 0  0.375 0.125 0  0.40625 0.125 0  0.4375 0.125 0  0.46875 0.125 0  0.5 0.125 0  0.53125 0.125 0  0.5625 0.125 0  0.59375 0.125 0  0.625 0.125 0  0.65625 0.125 0  0.6875 0.125 0  0.71875 0.125 0  0.75 0.125 0  0.78125 0.125 0  0.8125 0.125 0  0.84375 0.125 0  0.875 0.125 0  0.90625 0.125 0  0.9375 0.125 0  0.96875 0.125 0  1 0.125 0  0 0.15625 0  0.03125 0.15625 0  0.0625 0.15625 0  0.09375 0.15625 0  0.125 0.15625 0  0.15625 0.15625 0  0.1875 0.15625 0  0.21875 0.15625 0  0.25 0.15625 0  0.28125 0.15625 0  0.3125 0.15625 0  0.34375 0.15625 0  0.375 0.15625 0  0.40625 0.15625 0  0.4375 0.15625 0  0.46875 0.15625 0  0.5 0.15625 0  0.53125 0.15625 0  0.5625 0.15625 0  0.59375 0.15625 0  0.625 0.15625 0  0.65625 0.15625 0  0.6875 0.15625 0  0.71875 0.15625 0  0.75 0.15625 0  0.78125 0.15625 0  0.8125 0.15625 0  0.84375 0.15625 0  0.875 0.15625 0  0.90625 0.15625 0  0.9375 0.15625 0  0.96875 0.15625 0  1 0.15625 0  0 0.1875 0  0.03125 0.1875 0  0.0625 0.1875 0  0.09375 0.1875 0  0.125 0.1875 0  0.15625 0.1875 0  0.1875 0.1875 0  0.21875 0.1875 0  0.25 0.1875 0  0.28125 0.1875 0  0.3125 0.1875 0  0.34375 0.1875 0  0.375 0.1875 0  0.40625 0.1875 0  0.4375 0.1875 0  0.46875 0.1875 0  0.5 0.1875 0  0.53125 0.1875 0  0.5625 0.1875 0  0.59375 0.1875 0  0.625 0.1875 0  0.65625 0.1875 0  0.6875 0.1875 0  0.71875 0.1875 0  0.75 0.1875 0  0.78125 0.1875 0  0.8125 0.1875 0  0.84375 0.1875 0  0.875 0.1875 0  0.90625 0.1875 0  0.9375 0.1875 0  0.96875 0.1875 0  1 0.1875 0  0 0.21875 0  0.03125 0.21875 0  0.0625 0.21875 0  0.09375 0.21875 0  0.125 0.21875 0  0.15625 0.21875 0  0.1875 0.21875 0  0.21875 0.21875 0  0.25 0.21875 0  0.28125 0.21875 0  0.3125 0.21875 0  0.34375 0.21875 0  0.375 0.21875 0  0.40625 0.21875 0  0.4375 0.21875 0  0.46875 0.21875 0  0.5 0.21875 0  0.53125 0.21875 0  0.5625 0.21875 0  0.59375 0.21875 0  0.625 0.21875 0  0.65625 0.21875 0  0.6875 0.21875 0  0.71875 0.21875 0  0.75 0.21875 0  0.78125 0.21875 0  0.8125 0.21875 0  0.84375 0.21875 0  0.875 0.21875 0  0.90625 0.21875 0  0.9375 0.21875 0  0.96875 0.21875 0  1 0.21875 0  0 0.25 0  0.03125 0.25 0  0.0625 0.25 0  0.09375 0.25 0  0.125 0.25 0  0.15625 0.25 0  0.1875 0.25 0  0.21875 0.25 0  0.25 0.25 0  0.28125 0.25 0  0.3125 0.25 0  0.34375 0.25 0  0.375 0.25 0  0.40625 0.25 0  0.4375 0.25 0  0.46875 0.25 0  0.5 0.25 0  0.53125 0.25 0  0.5625 0.25 0  0.59375 0.25 0  0.625 0.25 0  0.65625 0.25 0  0.6875 0.25 0  0.71875 0.25 0  0.75 0.25 0  0.78125 0.25 0  0.8125 0.25 0  0.84375 0.25 0  0.875 0.25 0  0.90625 0.25 0  0.9375 0.25 0  0.96875 0.25 0  1 0.25 0  0 0.28125 0  0.03125 0.28125 0  0.0625 0.28125 0  0.09375 0.28125 0  0.125 0.28125 0  0.15625 0.28125 0  0.1875 0.28125 0  0.21875 0.28125 0  0.25 0.28125 0  0.28125 0.28125 0  0.3125 0.28125 0  0.34375 0.28125 0  0.375 0.28125 0  0.40625 0.28125 0  0.4375 0.28125 0  0.46875 0.28125 0  0.5 0.28125 0  0.53125 0.28125 0  0.5625 0.28125 0  0.59375 0.28125 0  0.625 0.28125 0  0.65625 0.28125 0  0.6875 0.28125 0  0.71875 0.28125 0  0.75 0.28125 0  0.78125 0.28125 0  0.8125 0.28125 0  0.84375 0.28125 0  0.875 0.28125 0  0.90625 0.28125 0  0.9375 0.28125 0  0.96875 0.28125 0  1 0.28125 0  0 0.3125 0  0.03125 0.3125 0  0.0625 0.3125 0  0.09375 0.3125 0  0.125 0.3125 0  0.15625 0.3125 0  0.1875 0.3125 0  0.21875 0.3125 0  0.25 0.3125 0  0.28125 0.3125 0  0.3125 0.3125 0  0.34375 0.3125 0  0.375 0.3125 0  0.40625 0.3125 0  0.4375 0.3125 0  0.46875 0.3125 0  0.5 0.3125 0  0.53125 0.3125 0  0.5625 0.3125 0  0.59375 0.3125 0  0.625 0.3125 0  0.65625 0.3125 0  0.6875 0.3125 0  0.71875 0.3125 0  0.75 0.3125 0  0.78125 0.3125 0  0.8125 0.3125 0  0.84375 0.3125 0  0.875 0.3125 0  0.90625 0.3125 0  0.9375 0.3125 0  0.96875 0.3125 0  1 0.3125 0  0 0.34375 0  0.03125 0.34375 0  0.0625 0.34375 0  0.09375 0.34375 0  0.125 0.34375 0  0.15625 0.34375 0  0.1875 0.34375 0  0.21875 0.34375 0  0.25 0.34375 0  0.28125 0.34375 0  0.3125 0.34375 0  0.34375 0.34375 0  0.375 0.34375 0  0.40625 0.34375 0  0.4375 0.34375 0  0.46875 0.34375 0  0.5 0.34375 0  0.53125 0.34375 0  0.5625 0.34375 0  0.59375 0.34375 0  0.625 0.34375 0  0.65625 0.34375 0  0.6875 0.34375 0  0.71875 0.34375 0  0.75 0.34375 0  0.78125 0.34375 0  0.8125 0.34375 0  0.84375 0.34375 0  0.875 0.34375 0  0.90625 0.34375 0  0.9375 0.34375 0  0.96875 0.34375 0  1 0.34375 0  0 0.375 0  0.03125 0.375 0  0.0625 0.375 0  0.09375 0.375 0  0.125 0.375 0  0.15625 0.375 0  0.1875 0.375 0  0.21875 0.375 0  0.25 0.375 0  0.28125 0.375 0  0.3125 0.375 0  0.34375 0.375 0  0.375 0.375 0  0.40625 0.375 0  0.4375 0.375 0  0.46875 0.375 0  0.5 0.375 0  0.53125 0.375 0  0.5625 0.375 0  0.59375 0.375 0  0.625 0.375 0  0.65625 0.375 0  0.6875 0.375 0  0.71875 0.375 0  0.75 0.375 0  0.78125 0.375 0  0.8125 0.375 0  0.84375 0.375 0  0.875 0.375 0  0.90625 0.375 0  0.9375 0.375 0  0.96875 0.375 0  1 0.375 0  0 0.40625 0  0.03125 0.40625 0  0.0625 0.40625 0  0.09375 0.40625 0  0.125 0.40625 0  0.15625 0.40625 0  0.1875 0.40625 0  0.21875 0.40625 0  0.25 0.40625 0  0.28125 0.40625 0  0.3125 0.40625 0  0.34375 0.40625 0  0.375 0.40625 0  0.40625 0.40625 0  0.4375 0.40625 0  0.46875 0.40625 0  0.5 0.40625 0  0.53125 0.40625 0  0.5625 0.40625 0  0.59375 0.40625 0  0.625 0.40625 0  0.65625 0.40625 0  0.6875 0.40625 0  0.71875 0.40625 0  0.75 0.40625 0  0.78125 0.40625 0  0.8125 0.40625 0  0.84375 0.40625 0  0.875 0.40625 0  0.90625 0.40625 0  0.9375 0.40625 0  0.96875 0.40625 0  1 0.40625 0  0 0.4375 0  0.03125 0.4375 0  0.0625 0.4375 0  0.09375 0.4375 0  0.125 0.4375 0  0.15625 0.4375 0  0.1875 0.4375 0  0.21875 0.4375 0  0.25 0.4375 0  0.28125 0.4375 0  0.3125 0.4375 0  0.34375 0.4375 0  0.375 0.4375 0  0.40625 0.4375 0  0.4375 0.4375 0  0.46875 0.4375 0  0.5 0.4375 0  0.53125 0.4375 0  0.5625 0.4375 0  0.59375 0.4375 0  0.625 0.4375 0  0.65625 0.4375 0  0.6875 0.4375 0  0.71875 0.4375 0  0.75 0.4375 0  0.78125 0.4375 0  0.8125 0.4375 0  0.84375 0.4375 0  0.875 0.4375 0  0.90625 0.4375 0  0.9375 0.4375 0  0.96875 0.4375 0  1 0.4375 0  0 0.46875 0  0.03125 0.46875 0  0.0625 0.46875 0  0.09375 0.46875 0  0.125 0.46875 0  0.15625 0.46875 0  0.1875 0.46875 0  0.21875 0.46875 0  0.25 0.46875 0  0.28125 0.46875 0  0.3125 0.46875 0  0.34375 0.46875 0  0.375 0.46875 0  0.40625 0.46875 0  0.4375 0.46875 0  0.46875 0.46875 0  0.5 0.46875 0  0.53125 0.46875 0  0.5625 0.46875 0  0.59375 0.46875 0  0.625 0.46875 0  0.65625 0.46875 0  0.6875 0.46875 0  0.71875 0.46875 0  0.75 0.46875 0  0.78125 0.46875 0  0.8125 0.46875 0  0.84375 0.46875 0  0.875 0.46875 0  0.90625 0.46875 0  0.9375 0.46875 0  0.96875 0.46875 0  1 0.46875 0  0 0.5 0  0.03125 0.5 0  0.0625 0.5 0  0.09375 0.5 0  0.125 0.5 0  0.15625 0.5 0  0.1875 0.5 0  0.21875 0.5 0  0.25 0.5 0  0.28125 0.5 0  0.3125 0.5 0  0.34375 0.5 0  0.375 0.5 0  0.40625 0.5 0  0.4375 0.5 0  0.46875 0.5 0  0.5 0.5 0  0.53125 0.5 0  0.5625 0.5 0  0.59375 0.5 0  0.625 0.5 0  0.65625 0.5 0  0.6875 0.5 0  0.71875 0.5 0  0.75 0.5 0  0.78125 0.5 0  0.8125 0.5 0  0.84375 0.5 0  0.875 0.5 0  0.90625 0.5 0  0.9375 0.5 0  0.96875 0.5 0  1 0.5 0  0 0.53125 0  0.03125 0.53125 0  0.0625 0.53125 0  0.09375 0.53125 0  0.125 0.53125 0  0.15625 0.53125 0  0.1875 0.53125 0  0.21875 0.53125 0  0.25 0.53125 0  0.28125 0.53125 0  0.3125 0.53125 0  0.34375 0.53125 0  0.375 0.53125 0  0.40625 0.53125 0  0.4375 0.53125 0  0.46875 0.53125 0  0.5 0.53125 0  0.53125 0.53125 0  0.5625 0.53125 0  0.59375 0.53125 0  0.625 0.53125 0  0.65625 0.53125 0  0.6875 0.53125 0  0.71875 0.53125 0  0.75 0.53125 0  0.78125 0.531
[...]
<PointData  Scalars="f_38-1"> 
<DataArray  type="Float64"  Name="f_38-1"  format="ascii">-3.7684627681510776e+01  -3.8032617785344534e+01  -3.7787591306454331e+01  -3.6382331621528841e+01  -3.3852703304886326e+01  -3.0439894293996243e+01  -2.6685209279880986e+01  -2.3167423417620750e+01  -2.0278927441895263e+01  -1.8049123292734553e+01  -1.6192814720388661e+01  -1.4440431097051738e+01  -1.2730483718647589e+01  -1.1168785309137121e+01  -9.9210475880435052e+00  -8.9253483718540672e+00  -8.6612207439062043e+00  -7.8997147392506148e+00  -5.6425474707017029e+00  2.1245218859526838e+00  9.4690402799548554e+00  1.4543300528684847e+01  2.2527527373439408e+01  3.1382824976181034e+01  3.7226356085985195e+01  4.0663654112731557e+01  4.4227145126781565e+01  4.9599841957967925e+01  5.7688506974242401e+01  6.6959551804070642e+01  7.3937664100737095e+01  7.6190049469861293e+01  7.4696388093563513e+01  -3.7225578987705546e+01  -3.7509075826588237e+01  -3.7063098754827337e+01  -3.5636689887226375e+01  -3.3294744023478621e+01  -3.0329530663965038e+01  -2.7066525340021748e+01  -2.3902939268922108e+01  -2.1160254390956403e+01  -1.8829958965368263e+01  -1.6785962134101887e+01  -1.4941242406282900e+01  -1.3234465280601153e+01  -1.1695461409472859e+01  -1.0394313815655549e+01  -9.3741988694440046e+00  -8.5791601284276222e+00  -6.8662214269398119e+00  -5.1282214264144201e+00  2.1466242494132630e+00  9.3528449219555903e+00  1.5627430521666895e+01  2.3596576527366661e+01  3.1697656754359500e+01  3.7547412425087813e+01  4.2111955235959279e+01  4.5953748237803595e+01  5.1336914774052929e+01  5.8767427238461984e+01  6.6320987664810914e+01  7.1934145960381386e+01  7.4473328165421009e+01  7.3153258172058884e+01  -3.7519542046130141e+01  -3.7852945297847782e+01  -3.7073285962152852e+01  -3.5439496289609316e+01  -3.3380576845650744e+01  -3.0632227345250435e+01  -2.7358090350699076e+01  -2.4238402308822764e+01  -2.1456928229476031e+01  -1.9067384457841765e+01  -1.7150888236213600e+01  -1.5373266852191083e+01  -1.3586850853406581e+01  -1.1963394792793405e+01  -1.0604510936963237e+01  -9.5206725348647545e+00  -8.5963784849902840e+00  -7.8216217316414314e+00  -8.8196154920477046e+00  0.0000000000000000e+00  1.9953094723748208e+01  1.6396935566030621e+01  2.6496890881975833e+01  3.2955343449373217e+01  4.0986935382974124e+01  4.2971579787572956e+01  4.7334621240927852e+01  5.3498124935786009e+01  6.0138085903220578e+01  6.6905255346173647e+01  7.3501998541902353e+01  7.6701552956256066e+01  7.5250719181765049e+01  -3.9166205625518664e+01  -3.8795559242501042e+01  -3.7764112710978637e+01  -3.7173771331633567e+01  -3.5161962866785927e+01  -3.1231664729130873e+01  -2.7435884661552201e+01  -2.4053768016859838e+01  -2.1219066790570437e+01  -1.9578752334821665e+01  -1.7960783277661577e+01  -1.5741164656069550e+01  -1.3719211147903458e+01  -1.1983823674480409e+01  -1.0521221845865275e+01  -9.4306008527515797e+00  -8.6712839404769060e+00  -8.4471091040844382e+00  -8.1311263237917153e+00  -1.6276353221124989e+01  0.0000000000000000e+00  6.3588851626156622e+00  0.0000000000000000e+00  5.4002533641615578e+01  3.9147033206549537e+01  4.6525578696401070e+01  4.6488437846125365e+01  4.7626664996677682e+01  5.2392586940252293e+01  6.9078863426474555e+01  7.9695694460189515e+01  8.2419910449066293e+01  8.3453912333106871e+01  -4.1332681876410653e+01  -4.0225898822098159e+01  -4.0083089950908416e+01  -3.8102837819055459e+01  -3.2798569587804600e+01  -3.1185899757453818e+01  -2.7942555223544083e+01  -2.2893587881237476e+01  -2.0702858734235978e+01  -1.9073031753395551e+01  -1.6230958509432398e+01  -1.5428275875642257e+01  -1.4055740820605342e+01  -1.1582691938937520e+01  -1.0033194519868109e+01  -9.0560417151208270e+00  -8.3791035783329857e+00  -7.9927520572023942e+00  -8.4841326528482597e+00  -7.3813707719706620e+00  -6.0763973841174810e+00  -4.5191255978575757e+00  -1.5593739635690685e+01  0.0000000000000000e+00  7.0384063370962892e+01  4.2036490883584896e+01  4.1581617827295347e+01  4.5429635605670576e+01  6.9998072070869938e+01  9.1772011407751378e+01  8.4751465613018922e+01  9.3331728513717593e+01  9.5030075864773593e+01  -4.3691870638375477e+01  -4.2262576701905296e+01  -4.1861332350569825e+01  -3.6880561967172255e+01  -4.6859766137878324e+01  -4.8371355380944905e+01  -2.5526015668232290e+01  -1.8701579230351200e+01  -1.9040193584614926e+01  -1.7136746587050435e+01  -2.2254050817954745e+01  -2.4415331267525502e+01  -1.3560344493212964e+01  -9.8177331037482034e+00  -9.2261879783088112e+00  -8.4141555786429958e+00  -7.7062196123262643e+00  -7.2939764265317075e+00  -6.9654388331373172e+00  -6.6088040437895437e+00  -5.9232593074715050e+00  -6.5379386570361273e+00  -6.3263712519186805e+00  -2.1335876762139335e+01  0.0000000000000000e+00  4.4158949908460563e+01  3.6606138967845503e+01  3.4891809314948318e+01  0.0000000000000000e+00  0.0000000000000000e+00  1.2571479907859947e+02  9.5588970656896691e+01  1.0355732927231202e+02  -4.5321599581535224e+01  -4.3858030254073370e+01  -4.2508608382796965e+01  -4.0779370058283824e+01  -5.4792471691034585e+01  0.0000000000000000e+00  0.0000000000000000e+00  -1.4122016772568628e+01  -1.6950419197148669e+01  -1.7440669028821958e+01  -2.4572613914092628e+01  0.0000000000000000e+00  0.0000000000000000e+00  -7.9047563721147966e+00  -8.6391432612860850e+00  -7.6533101836961297e+00  -6.6757129837177338e+00  -6.2731419708887932e+00  -6.0105124556181488e+00  -5.7162814254243610e+00  -5.4040909406585982e+00  -5.0708327010020717e+00  -5.7410384189091044e+00  -2.9628695810790071e+00  8.8424016425897776e+00  2.7027259922318834e+01  2.4162379983954636e+01  2.6711418948139567e+01  4.4437340148177100e+01  1.0116804954041103e+02  1.0760150177812513e+02  8.8975795196809671e+01  1.0713781892156206e+02  -4.6302288449926600e+01  -4.6659103970966576e+01  -4.4419173364235284e+01  -4.1692900647959824e+01  -3.5438404041682645e+01  -3.3109766888025980e+01  -1.8148205881638383e+01  -1.4691899364489778e+01  -1.5762728518206846e+01  -1.6769522785950681e+01  -1.5460853537712755e+01  -1.5491032998245888e+01  -1.0275458432513021e+01  -1.2318468789603509e+01  -1.0308214200149109e+01  -5.9046808262251904e+00  -5.4297981848261747e+00  -5.0315038248575839e+00  -5.0874815934600113e+00  -4.9818185171574045e+00  -4.5955466656673760e+00  -3.9411984275218743e+00  -2.4247511865518590e+00  1.1673506271578249e+00  7.1241307254446662e+00  1.3980008957224635e+01  1.7121274026072491e+01  4.7129955287690230e+01  8.2098935209999837e+01  7.5841480624746197e+01  8.1836809517300850e+01  9.1709068050795253e+01  1.0171592897090672e+02  -5.1400176071550014e+01  -4.9345696651637724e+01  -4.3085796920912983e+01  -3.9928947246956824e+01  -3.3632533813311341e+01  -2.4212073618742604e+01  -1.7062278359931955e+01  -1.6127500780710438e+01  -1.5723392493279439e+01  -1.5218983653788662e+01  -1.4709564689356215e+01  -1.3050238441021101e+01  -1.1317609785863212e+01  -1.4885653377110931e+01  0.0000000000000000e+00  -4.4683726479046619e+00  -2.3895665134785999e+00  -3.5840495625431199e+00  -4.4382257232403335e+00  -4.5080351272689896e+00  -4.0937790905401465e+00  -3.1676831363434914e+00  -1.4514935409615513e+00  1.3422463891409000e+00  4.9199052621198627e+00  8.7937791775727607e+00  6.8751287587678556e-01  0.0000000000000000e+00  0.0000000000000000e+00  1.0551043907297711e+02  8.0976976828393859e+01  8.6841394386538965e+01  9.0348821961801747e+01  -6.0824933241273484e+01  -4.8629054451922457e+01  -5.8245654259529992e+01  -5.0499737510306645e+01  -2.5435436116927306e+01  -2.0811840303801866e+01  -1.8047044419619205e+01  -1.6129035688581585e+01  -1.4888725809629197e+01  -1.4386895946845195e+01  -1.3811677760729532e+01  -1.3133520137496991e+01  -1.3085360600149508e+01  -1.2230648297604780e+01  -1.9143958154755694e+01  0.0000000000000000e+00  0.0000000000000000e+00  -3.2810653945375354e+00  -4.5220376420907868e+00  -4.4267209891767605e+00  -4.0523678755200088e+00  -3.1695642141117926e+00  -1.6950448151625790e+00  4.8663497323062932e-01  3.2343750645994911e+00  5.7075573931655681e+00  8.2743408291305798e+00  9.1646240504944227e+00  5.7033578648065038e+01  7.9274605215071801e+01  6.6218715579601891e+01  7.8365569053298771e+01  8.2438547497683672e+01  -6.2942671603100621e+01  -5.0302525597312247e+01  -8.1017447139313617e+01  0.0000000000000000e+00  -1.3718784948671205e+01  -1.5797983036956101e+01  -1.5121689949801322e+01  -1.4402836176959886e+01  -1.3983388062158747e+01  -1.3631243168694715e+01  -1.3235798122613010e+01  -1.2893153068511767e+01  -1.2528653439745698e+01  -1.2748783876882609e+01  -1.0974076288669879e+01  -1.1113138601106428e+01  -1.0008665072984572e+01  -5.4441170003909871e+00  -4.9004885221111856e+00  -4.7401131586180538e+00  -4.4822449375094457e+00  -3.7980772783683436e+00  -2.7204526541710199e+00  -8.6802095289613501e-01  1.4193480921672483e+00  5.2518034395226456e+00  9.4526235935957246e+00  2.2618278407570202e+01  4.5123154398113499e+01  5.4525644651339618e+01  6.3171600755731923e+01  6.9534834639398227e+01  7.2257386941645677e+01  -5.2604495442411924e+01  -6.7440638964224902e+01  -6.7540994186848437e+01  0.0000000000000000e+00  -4.9241872961538204e+00  -1.1686485049885267e+01  -1.2685877418712776e+01  -1.3027429799346109e+01  -1.2961047253920752e+01  -1.2803843878899883e+01  -1.2652535510019618e+01  -1.2467072907062033e+01  -1.2297181057351992e+01  -1.1780773294628661e+01  -1.1233366059068755e+01  -9.8636912226870521e+00  -6.8912072012225671e+00  -5.5393990732138150e+00  -5.2781142854623804e+00  -5.2794797676912602e+00  -5.2878253411299889e+00  -4.9362579835529008e+00  -4.2544678344615150e+00  -2.8799984416101241e+00  -2.0224203365861233e+00  2.4512190442256827e+00  9.6843746350747217e+00  4.4005733150820248e+01  6.6206131173568323e+01  5.3747135316275745e+01  5.7255831371343369e+01  5.7469711591401499e+01  6.2541968532207953e+01  -5.5199723004335645e+01  -7.9719459581429632e+01  0.0000000000000000e+00  -1.3801812971559372e+01  -9.2578137670576233e+00  -1.0573438100795544e+01  -1.1075607514839936e+01  -1.1694341096400475e+01  -1.1903164898269168e+01  -1.2057738411204102e+01  -1.2133907999080119e+01  -1.2114374507089964e+01  -1.2005849125554576e+01  -1.1633358631502817e+01  -1.1346790571021044e+01  -9.3630765235258568e+00  -8.0399893112555638e+00  -4.4575117703928191e+00  -4.7356627412366166e+00  -5.9682560009663614e+00  -6.5128299131550991e+00  -6.4351925085511734e+00  -6.1355816424548806e+00  -5.6689304384223522e+00  -5.8998694320170939e+00  -1.8645834232444456e+00  -1.2808432351254107e+01  0.0000000000000000e+00  0.0000000000000000e+00  6.1526500169741389e+01  4.2102836940488004e+01  4.5749058207374297e+01  5.0886031467976018e+01  -4.5191975264200465e+01  -4.5814586697630446e+01  0.0000000000000000e+00  -5.0830637028835071e+00  -7.7113905658890776e+00  -9.4090763754260180e+00  -1.0085526253465313e+01  -1.0663613186545653e+01  -1.1029692724839606e+01  -1.1325825005192771e+01  -1.1522442128984139e+01  -1.1762385241347868e+01  -1.1938476398539088e+01  -1.1858950675912391e+01  -1.1743004074467999e+01  -9.8082189892386573e+00  -1.3038910286410458e+01  0.0000000000000000e+00  -4.3299875826767122e+00  -8.0813400063182268e+00  -8.0647427745032569e+00  -8.1556943677909715e+00  -8.1815130524042452e+00  -8.3961710673735173e+00  -8.9642186188890953e+00  -1.0542129841454571e+01  -2.8092884293490449e+01  0.0000000000000000e+00  1.2362903599447042e+01  2.9877537119331205e+01  2.5330651922534951e+01  3.2988999206426953e+01  3.4375637184475956e+01  -2.4892579817571786e+01  -2.2179015800165761e+01  -1.6732848105097361e+01  -9.6147597248213010e+00  -9.0413152559833279e+00  -8.9753093729867999e+00  -9.2863829592548086e+00  -9.6922117885392574e+00  -1.0067026144271704e+01  -1.0562217163892825e+01  -1.1343402046350450e+01  -1.2030323393868432e+01  -1.2139820637847768e+01  -1.2189141620902907e+01  -1.2283379814951967e+01  -1.2390200752965333e+01  -1.6558778008070238e+01  0.0000000000000000e+00  -1.4096229881464087e+01  -1.0136615637799665e+01  -9.8161563777013523e+00  -9.9575451454109469e+00  -1.0106004959874001e+01  -1.0549793807532740e+01  -1.1513848039501925e+01  -1.4345961989291695e+01  -1.6458540156038193e+01  -2.2849925475237210e+01  -2.3873641615486192e+00  8.9438258426181960e+00  1.5167663878559036e+01  1.8442248200523949e+01  1.7498847613400123e+01  -1.3947503689234097e+01  -1.4421364596441721e+01  -1.1535773478358482e+01  -8.5595499097712278e+00  -8.3363600857320428e+00  -8.2048914382016491e+00  -8.4384558527799296e+00  -8.7049995991684543e+00  -9.3078056882985116e+00  -1.0203611890936985e+01  -1.0790795655348626e+01  -1.0481769500214538e+01  -1.1321426161643487e+01  -1.2888649750071444e+01  -1.3102876288208389e+01  -1.3625306878697067e+01  -1.4107378369051299e+01  -2.0539141399640030e+01  -1.6244586387764731e+01  -1.1016061330887888e+01  -1.1788428857928981e+01  -1.1568552328844158e+01  -1.1771773238656365e+01  -1.2235380067056607e+01  -1.3038332243183900e+01  -1.3919882049156767e+01  -1.4614351738235728e+01  -1.0266628310628164e+01  -3.3089888553299875e+00  7.6049752447039443e-01  4.4062451108659442e+00  5.2450880881921478e+00  4.1303674493049956e+00  -7.9728844926325229e+00  -8.0139667755984068e+00  -7.5692498768350145e+00  -7.2944791731335217e+00  -7.3991235077911170e+00  -7.4764013213850600e+00  -7.5031044823817705e+00  -7.6727490626333417e+00  -7.9183575047653418e+00  -8.2179146667700831e+00  -9.6451243778014728e+00  -1.3374248905639618e+01  -1.8138435469759830e+01  -1.5058307530675506e+01  -1.2455135206576033e+01  -1.3844276728938400e+01  -1.4484523303827224e+01  -1.4018619232407376e+01  -1.2434989222303296e+01  -1.3065868430798083e+01  -1.3131929172063172e+01  -1.2894105226476922e+01  -1.3228882353277088e+01  -1.3616077546828201e+01  -1.4066026233643772e+01  -1.4376139941051667e+01  -1.3801907264059754e+01  -1.2076272211597708e+01  -9.6828472974297490e+00  -6.6407342363535635e+00  -4.6734491801726010e+00  -4.7069437850894040e+00  -6.5352509282116573e+00  -8.2366134461571827e-01  -2.8193645379723917e+00  -3.6806965788979054e+00  -5.4593193850147381e+00  -6.5295443435937868e+00  -6.7091864994957628e+00  -6.5549299769717635e+00  -6.2439443750119601e+00  -5.7664070335125936e+00  -8.7356916369738986e+00  -1.3774448902446608e+01  -1.1783738585212687e+01  0.0000000000000000e+00  0.0000000000000000e+00  -1.6427150707644834e+01  -1.2864528961259046e+01  -1.3921658484125190e+01  -1.3722692087025925e+01  -1.4020601759467718e+01  -1.4015907299778927e+01  -1.3840706002094711e+01  -1.4152674923216837e+01  -1.4531856542782316e+01  -1.4892722409091576e+01  -1.5245667143736870e+01  -1.5381022480940846e+01  -1.5103096053887601e+01  -1.4290461108330888e+01  -1.3000682791148416e+01  -1.1904951826462517e+01  -1.1780479227526621e+01  -1.2796880751267214e+01  -1.5224982032299168e+01  -1.7371461334472438e+00  4.5223954195163314e+00  4.4591561379370764e-01  -2.4521944337983754e+00  -3.9683337055218186e+00  -6.5148238665143428e+00  -6.2768492824466700e+00  -4.2686816407572152e+00  -2.9819370874137383e+00  -3.2471955650450459e+00  0.0000000000000000e+00  -1.4811146681680903e+01  -3.0660002002344067e+00  -8.6810189780547620e-01  0.0000000000000000e+00  -1.6462612568936397e+01  -1.3191609041716362e+01  -1.3122838565598174e+01  -1.3674383292768399e+01  -1.4177618424360420e+01  -1.4787288561311390e+01  -1.5323906478679961e+01  -1.5758338651237265e+01  -1.6201782276413667e+01  -1.6597204976783285e+01  -1.6870207672556674e+01  -1.6958793840609818e+01  -1.6857167935523758e+01  -1.6745304203530999e+01  -1.6942693618396369e+01  -1.7737928347569706e+01  -1.9433569325964569e+01  -2.2194436277607668e+01  3.7714051058427323e+01  1.9253711405359322e+01  9.8840428014845205e-01  -1.0438570526567179e+00  -1.1784868574249113e+01  -1.4958277038474092e+01  -5.0602670010750916e+00  -1.6711971092531881e+00  3.5926456280716879e-01  2.8057797999519689e+00  1.5794447564575693e+01  0.0000000000000000e+00  -1.1567155585824691e+00  3.0236277862657968e+00  0.0000000000000000e+00  -1.7594041192908570e+01  -9.9397657170033504e+00  -1.2390028118339844e+01  -1.3606756514764090e+01  -1.4832006260227043e+01  -1.5772949585871141e+01  -1.6447217558438801e+01  -1.7015333939729853e+01  -1.7553884706637962e+01  -1.8066516628776995e+01  -1.8556531529124324e+01  -1.9022377079948448e+01  -1.9512691481120843e+01  -2.0152320709374290e+01  -2.1127647794645366e+01  -2.2666194371403300e+01  -2.4967012820828764e+01  -2.8115526539081181e+01  8.6285393142455618e+01  0.0000000000000000e+00  -1.2911684610197572e+01  7.5976095169331188e+00  0.0000000000000000e+00  0.0000000000000000e+00  -1.1962698797134015e+00  2.6156520742736444e+00  3.3018863484397172e+00  5.3867118570670058e+00  5.7874279430324416e+00  6.8666511626711308e+00  2.5911224478946226e+00  6.3730406912484860e-01  -3.1732683424624502e+00  -7.6086664522187775e+00  -7.6795150624372255e+00  -1.1589179442924742e+01  -1.3505759312916823e+01  -1.5681094995724314e+01  -1.6989955443630482e+01  -1.7693287108873090e+01  -1.8312289990691543e+01  -1.8911786279897914e+01  -1.9561586514800773e+01  -2.0276399823591724e+01  -2.1079124614148412e+01  -2.2026497808754456e+01  -2.3215859829832855e+01  -2.4782661535800358e+01  -2.6878340406549523e+01  -2.9635313934800482e+01  -3.3152704707270829e+01  6.4444404706511818e+01  9.3808954327794069e+01  0.0000000000000000e+00  1.2364885753838797e+01  2.5896918824911854e+01  2.4509532638658900e+01  9.2492730664996738e+00  6.6851919439797758e+00  5.6283724185979747e+00  5.5834291250583101e+00  5.5844242341662813e+00  4.3694145166423031e+00  2.0768932390000532e+00  3.5123892905037923e-01  -1.8992611886037389e+00  -4.3236605306029103e+00  -5.4683458683621549e+00  -7.8786827704378188e+00  -1.3775624952186480e+01  -1.8182059739473196e+01  -1.8448725952844644e+01  -1.9096488006906192e+01  -1.9577412981955021e+01  -2.0219937616593160e+01  -2.0996215971453495e+01  -2.1912622785895699e+01  -2.2998593426939781e+01  -2.4304798086793209e+01  -2.5907689191586805e+01  -2.7904539666726219e+01  -3.0405851931419310e+01  -3.3522601406336129e+01  -3.7368174680840710e+01  5.8444954292022281e+01  4.6362581212408841e+01  4.0281825548805983e+01  2.9201663156078180e+01  2.0608757511444303e+01  1.4824251559221121e+01  1.1259091549343824e+01  9.4749176522162735e+00  7.2956279198981129e+00  6.2772190583385852e+00  5.4026183434873438e+00  4.2864506022148996e+00  2.9565171570791455e+00  1.0839409006011775e+00  -1.0889096895257180e+00  -2.8268573019193801e+00  1.0872001390081114e+00  0.0000000000000000e+00  -2.7675867924370131e+01  -1.9252011285535680e+01  -2.0835138578811186e+01  -2.0307118926747322e+01  -2.0710994342201584e+01  -2.1399877647044946e+01  -2.2290487502660763e+01  -2.3384553390771430e+01  -2.4702507360057631e+01  -2.6290168051472087e+01  -2.8206641289688520e+01  -3.0521812411986563e+01  -3.3317689462752689e+01  -3.6689129199294833e+01  -4.0758711658945209e+01  3.9045257475067316e+01  4.0445270961736334e+01  3.5393886524050529e+01  2.6907874739464980e+01  2.3570140346123637e+01  1.9948509018586254e+01  1.5142863651182404e+01  1.0761222060132756e+01  8.0064872455669143e+00  6.6189710771915991e+00  5.5841997807587376e+00  4.8386090658962866e+00  3.5721656714700289e+00  1.5257299540709488e+00  -9.6406141428632519e-01  -2.8347194372474789e+00  -3.5255846959643993e+00  -2.1758718406506117e+00  0.0000000000000000e+00  -2.9683059382387317e+01  -2.1184893883601333e+01  -2.1040765700013853e+01  -2.1610431474368784e+01  -2.2371226782402431e+01  -2.3393524949832933e+01  -2.4635596188839376e+01  -2.6137722929308847e+01  -2.7948247108636249e+01  -3.0108823846980641e+01  -3.2661134120819661e+01  -3.5655716579195897e+01  -3.9166854042112782e+01  -4.3314053311094014e+01  3.6807931441356423e+01  3.6690483778470835e+01  3.3284168201930918e+01  3.0391021382970159e+01  2.5993300596451409e+01  2.0151689260200339e+01  1.5632109796569646e+01  1.0630682708874025e+01  7.5733909212581167e+00  6.3832536204464647e+00  5.8592909638621107e+00  5.8271854069662954e+00  4.2528197422371044e+00  4.3951093988502912e+00  4.13971297