<?xml version="1.0"?>
<VTKFile type="UnstructuredGrid"  version="0.1"  >
<UnstructuredGrid>
<Piece  NumberOfPoints="19218" NumberOfCells="33095">
<Points>
<DataArray  type="Float64"  NumberOfComponents="3"  format="ascii">0 1 0  0 0 0  1 0 0  1 1 0  0.114927870643792 0.9523809523809523 0  0.1242777615478612 0.9365079365079365 0  0.1111790602244897 0.9206349206349206 0  0.1111111111111111 0.9205938144365108 0  0.1038620496470105 0.9047619047619047 0  0.09523809523809523 0.8902025678378103 0  0.09390983201698423 0.8888888888888888 0  0.07936507936507936 0.8739073552281739 0  0.06606872256103946 0.8888888888888888 0  0.06719617981043774 0.9047619047619047 0  0.06349206349206349 0.9133683084100196 0  0.04761904761904762 0.9160289545562668 0  0.03732018054045592 0.9206349206349206 0  0.03174603174603174 0.9244426187722554 0  0.01909223139203985 0.9206349206349206 0  0.02100967232481595 0.9047619047619047 0  0.03115027703949787 0.8888888888888888 0  0.01587301587301587 0.8758759498188687 0  0.01584658117645333 0.8888888888888888 0  0.01585826572355867 0.9047619047619047 0  0.01586892889831564 0.9206349206349206 0  0.01580548386545644 0.9365079365079365 0  0.0158383053048224 0.9523809523809523 0  0.01583266916063246 0.9682539682539681 0  0.01587301587301587 0.9786851813075156 0  0.02732149409796926 0.9682539682539681 0  0.02728703185876425 0.9523809523809523 0  0.03174603174603174 0.9490416217478163 0  0.03579278626680666 0.9523809523809523 0  0.04761904761904762 0.9630014124136856 0  0.05609260557257024 0.9523809523809523 0  0.05906352421479349 0.9365079365079365 0  0.06349206349206349 0.9302711562037558 0  0.06831170068113439 0.9365079365079365 0  0.0734366522876823 0.9523809523809523 0  0.06609314336687316 0.9682539682539681 0  0.06592347526162202 0.9841269841269841 0  0.07936507936507936 0.9841818972266476 0  0.09523809523809523 0.9841760817087232 0  0.1081084135222236 0.9841269841269841 0  0.1090219897767458 0.9682539682539681 0  0.1111111111111111 0.9658460589423009 0  0.1111111111111111 0.8503140682993557 0  0.1183901937815416 0.8412698412698412 0  0.1111111111111111 0.836996739648349 0  0.1092011510743693 0.8412698412698412 0  0.09523809523809523 0.8640134381791875 0  0.1054608546093668 0.8571428571428571 0  0.09523809523809523 0.8546438009671432 0  0.09192381998343011 0.8571428571428571 0  0.1904761904761905 0.7806977157976571 0  0.1959930983328391 0.7777777777777777 0  0.1948957861110396 0.7619047619047619 0  0.1904761904761905 0.7486440117481108 0  0.1746031746031746 0.7583052801909258 0  0.1673842336947373 0.746031746031746 0  0.1684160492011178 0.7301587301587301 0  0.1746031746031746 0.7254953809763693 0  0.1851990846182633 0.7142857142857142 0  0.1878808237125539 0.6984126984126984 0  0.1746031746031746 0.6927597208390318 0  0.1719009566113754 0.6825396825396826 0  0.1704021592037837 0.6666666666666666 0  0.1587301587301587 0.6509579401860925 0  0.1583930084068769 0.6507936507936507 0  0.1428571428571428 0.644068365469097 0  0.1324147304425219 0.6349206349206349 0  0.126984126984127 0.6301762424564489 0  0.1111111111111111 0.6330215209595331 0  0.1094605016269794 0.6349206349206349 0  0.1111111111111111 0.6355815096657527 0  0.1239475961975093 0.6507936507936507 0  0.1250588261684535 0.6666666666666666 0  0.1261893297504886 0.6825396825396826 0  0.1129924418170401 0.6984126984126984 0  0.1111111111111111 0.7012136086228152 0  0.1009183753650261 0.7142857142857142 0  0.1023458418637615 0.7301587301587301 0  0.09523809523809523 0.7329259318014753 0  0.07936507936507936 0.7381368989609768 0  0.06593509946271144 0.746031746031746 0  0.07465845595069347 0.7619047619047619 0  0.07143086670397679 0.7777777777777777 0  0.07936507936507936 0.792423993546763 0  0.09523809523809523 0.7891669517960229 0  0.1001631711873915 0.7777777777777777 0  0.1111111111111111 0.769069976950019 0  0.1210437586422297 0.7619047619047619 0  0.126984126984127 0.7560817844123546 0  0.1303271784416158 0.7619047619047619 0  0.126984126984127 0.7646702652218678 0  0.1158742562442055 0.7777777777777777 0  0.1111111111111111 0.7864240885307148 0  0.09801347285867208 0.7936507936507936 0  0.09523809523809523 0.796052722720251 0  0.07936507936507936 0.795546934384993 0  0.07568232499976364 0.8095238095238095 0  0.07936507936507936 0.8156167770603071 0  0.09523809523809523 0.8160143574925984 0  0.1111111111111111 0.8178031497628858 0  0.1238683332153979 0.8253968253968254 0  0.126984126984127 0.8311051024829879 0  0.1428571428571428 0.8372211063439634 0  0.1486109309279743 0.8412698412698412 0  0.1428571428571428 0.8509464939640076 0  0.1414598424190645 0.8571428571428571 0  0.1428571428571428 0.8604916802088793 0  0.1587301587301587 0.8707580082301567 0  0.1746031746031746 0.8613585544583452 0  0.1904761904761905 0.8630868108488563 0  0.1958534183106972 0.8571428571428571 0  0.1904761904761905 0.8505684904390095 0  0.1821540396068969 0.8412698412698412 0  0.1746031746031746 0.8267138265495155 0  0.1733955527187963 0.8253968253968254 0  0.1746031746031746 0.8225378398684738 0  0.1796686543231586 0.8095238095238095 0  0.1746031746031746 0.8039966858434975 0  0.1658416334512415 0.7936507936507936 0  0.1746031746031746 0.7801970515045434 0  0.1904761904761905 0.8262017571643749 0  0.191160600945736 0.8253968253968254 0  0.1904761904761905 0.8244000797953961 0  0.1842189700180061 0.8253968253968254 0  0.2405578410482172 0.746031746031746 0  0.2522771009921847 0.7301587301587301 0  0.2486365246772024 0.7142857142857142 0  0.2459144044850428 0.6984126984126984 0  0.2380952380952381 0.6917902207787647 0  0.2314967790346928 0.6984126984126984 0  0.2222222222222222 0.7116547628716898 0  0.2145520881023155 0.6984126984126984 0  0.2186153188527558 0.6825396825396826 0  0.2088842649465741 0.6666666666666666 0  0.2063492063492063 0.6625340328579098 0  0.1943098682996874 0.6507936507936507 0  0.1925892184028924 0.6349206349206349 0  0.1904761904761905 0.6267093496120134 0  0.1855246243075961 0.6190476190476191 0  0.1746031746031746 0.603995889672938 0  0.1733058058141346 0.6031746031746031 0  0.1746031746031746 0.6018074021309041 0  0.176985081544709 0.6031746031746031 0  0.1904761904761905 0.6096087309502044 0  0.2007286162861132 0.6031746031746031 0  0.19737467661469 0.5873015873015872 0  0.1904761904761905 0.5849977448493605 0  0.1746031746031746 0.579845226292254 0  0.1692744849089972 0.5714285714285714 0  0.1587301587301587 0.561870517831794 0  0.1428571428571428 0.5699694248412582 0  0.1278652136828386 0.5714285714285714 0  0.1352717047682279 0.5873015873015872 0  0.1428571428571428 0.5977351824750248 0  0.1499688521998086 0.6031746031746031 0  0.1428571428571428 0.6078962645227616 0  0.1368185873503302 0.6190476190476191 0  0.1428571428571428 0.6258452328979918 0  0.1502368822416426 0.6349206349206349 0  0.1587301587301587 0.6505766149330395 0  0.1590664142448613 0.6507936507936507 0  0.1746031746031746 0.6598908907941762 0  0.1840316488982926 0.6666666666666666 0  0.1773993688451309 0.6825396825396826 0  0.1904761904761905 0.6980540236951391 0  0.1912480213227365 0.6984126984126984 0  0.2014007451763511 0.7142857142857142 0  0.194249428079951 0.7301587301587301 0  0.2063492063492063 0.7380335472528282 0  0.2139538357718797 0.746031746031746 0  0.2222222222222222 0.7518720429586498 0  0.2320999340733512 0.7619047619047619 0  0.2222222222222222 0.7750854619991414 0  0.2184871561872803 0.7777777777777777 0  0.2222222222222222 0.7815969760610129 0  0.2359908287529306 0.7936507936507936 0  0.2222222222222222 0.8085163635607411 0  0.2202644475060929 0.8095238095238095 0  0.2222222222222222 0.810078049516525 0  0.2321535529289996 0.8253968253968254 0  0.2380952380952381 0.833108250209929 0  0.2455181282860233 0.8253968253968254 0  0.2428783880384105 0.8095238095238095 0  0.2398080275869215 0.7936507936507936 0  0.2425034665489314 0.7777777777777777 0  0.2421240022310806 0.7619047619047619 0  0.2380952380952381 0.5969284423217239 0  0.2486504545758831 0.5873015873015872 0  0.2380952380952381 0.5804500388555125 0  0.2280895896534408 0.5714285714285714 0  0.2380952380952381 0.5579691201989972 0  0.2404744242760746 0.5555555555555556 0  0.2380952380952381 0.5538948962067364 0  0.2222222222222222 0.5439452621504623 0  0.214028502844952 0.5555555555555556 0  0.2063492063492063 0.5695592153489345 0  0.2043070372974665 0.5714285714285714 0  0.2063492063492063 0.5777881039531486 0  0.2117876959906869 0.5873015873015872 0  0.210404806113185 0.6031746031746031 0  0.2222222222222222 0.6096560441778616 0  0.2297120064878507 0.6031746031746031 0  0.2422079813969928 0.4761904761904762 0  0.2460243261964043 0.4603174603174603 0  0.2380952380952381 0.4543264664676772 0  0.2234731407433571 0.4603174603174603 0  0.2311944620285495 0.4761904761904762 0  0.2380952380952381 0.4777093870189842 0  0.253968253968254 0.3449024175980663 0  0.2607550977150862 0.3333333333333333 0  0.253968253968254 0.3264044963851729 0  0.2401962003788906 0.3333333333333333 0  0.253968253968254 0.204695893273569 0  0.26190647855595 0.1904761904761905 0  0.253968253968254 0.1859137149750064 0  0.2505085644299351 0.1904761904761905 0  0.2707701208210026 0.03174603174603174 0  0.2817452847633389 0.01587301587301587 0  0.2698412698412698 0.01581260595917192 0  0.2546070780919799 0.01587301587301587 0  0.253968253968254 0.02440198753356732 0  0.2533913364939331 0.03174603174603174 0  0.2533316092186223 0.04761904761904762 0  0.253968253968254 0.04786346531519173 0  0.2544059635330193 0.04761904761904762 0  0.2698412698412698 0.03189948359235391 0  0.2063492063492063 0.4960248109971494 0  0.2082584421075897 0.492063492063492 0  0.2063492063492063 0.4912213560099991 0  0.2044498890618389 0.492063492063492 0  0.3650793650793651 0.6037026597389289 0  0.3658268868120477 0.6031746031746031 0  0.3650793650793651 0.6022811637487433 0  0.3492063492063492 0.6031435155794703 0  0.3333333333333333 0.5914252502218184 0  0.3282476766140588 0.5873015873015872 0  0.3210740631963072 0.5714285714285714 0  0.31746031746
[...]
<PointData  Scalars="f_32-1"> 
<DataArray  type="Float64"  Name="f_32-1"  format="ascii">-6.0945914975194712e+04  -3.0261855877473346e+04  2.3361754104053525e+04  9.2744444198748199e+04  -4.6150921201225166e+04  -4.9892455073187753e+04  -5.5893297814495527e+04  -5.5839875488090627e+04  -5.6095939170289384e+04  -5.6178629610264026e+04  -5.6302585971979250e+04  -5.8441237917624705e+04  -5.8214995031382423e+04  -5.8218906311275758e+04  -5.8218822001793473e+04  -5.8219101260026880e+04  -5.8219162259893543e+04  -5.8219136951940411e+04  -5.8219117785639042e+04  -5.8219060413001811e+04  -5.8320611223664404e+04  -6.2732716288017938e+04  -6.4825488697284294e+04  -6.6054096318918135e+04  -6.6536370690853204e+04  -6.6261425516819159e+04  -6.5210529611805418e+04  -6.3290325125512107e+04  -6.0591306943995471e+04  -5.8547420083672529e+04  -5.8719507142324481e+04  -5.8687762412294927e+04  -5.8693506799771152e+04  -5.8701148276934582e+04  -5.8732024592720605e+04  -5.8729831958334304e+04  -5.8730898778531679e+04  -5.8730075458833104e+04  -5.8729645632946515e+04  -5.8757190144056091e+04  -5.8260526529182520e+04  -5.3665571509704765e+04  -4.9951865696462359e+04  -4.5840967508485199e+04  -4.5510045405988065e+04  -4.5337307582446367e+04  -5.7175923361074536e+04  -5.6769745648288277e+04  -5.8779087333811462e+04  -5.9407795041283003e+04  -5.6736681388594123e+04  -5.7101094281043370e+04  -5.9273631034649457e+04  -5.8961217521510545e+04  -3.4081843535702821e+04  -3.4092324840301982e+04  -3.4091303133718960e+04  -3.4092399457143532e+04  -3.4092594179570922e+04  -3.4092603853442648e+04  -3.4092591286205345e+04  -3.4092546429985472e+04  -3.4093651106696831e+04  -3.4135171880532500e+04  -3.4196007489328367e+04  -3.4207918802895423e+04  -3.4218594773739373e+04  -3.8414107436023027e+04  -4.2001763422157739e+04  -4.3289279531776556e+04  -4.3165286817204789e+04  -4.2911672674196729e+04  -4.6962899589617300e+04  -5.6703986801901483e+04  -6.1130129090359944e+04  -5.7982894783409611e+04  -5.7932529636111693e+04  -5.7908421998947037e+04  -5.7895876424498405e+04  -5.7915769364344014e+04  -5.8035031302928553e+04  -5.8001002568500109e+04  -5.7974553603810171e+04  -5.7962104023964021e+04  -5.8277576304024449e+04  -5.8559362742130761e+04  -5.9094010034235442e+04  -5.9609882040829863e+04  -5.9591132803992950e+04  -5.9590918521942192e+04  -5.9590936289194222e+04  -5.9591007079351628e+04  -5.9591032190614271e+04  -5.9591024759382381e+04  -5.9591017563006579e+04  -5.9590922316330791e+04  -5.9590876847052699e+04  -5.9589757020939905e+04  -5.9591656083572612e+04  -5.9571167713675910e+04  -5.9988017475741872e+04  -5.9336350090500440e+04  -5.8802716649430935e+04  -5.8593209510617206e+04  -5.8079349506398430e+04  -5.7348910526645333e+04  -5.6482177583867720e+04  -5.6524607391729332e+04  -5.6648081509930453e+04  -5.6733865967009791e+04  -5.6043960842253095e+04  -4.7796414523503656e+04  -3.8886232085535499e+04  -3.8710843823132316e+04  -3.4829084684678906e+04  -3.3639558514734876e+04  -3.4030388993870249e+04  -3.4079562321698606e+04  -3.4078803233693165e+04  -3.4090316757985885e+04  -3.4065258489211934e+04  -3.4081953362341475e+04  -3.4080592243550302e+04  -3.4080173788197419e+04  -3.4332124223475010e+04  -3.3955385246548394e+04  -3.3957438052622056e+04  -3.4095135442838859e+04  -2.9082224901260626e+04  -2.8618966739688982e+04  -2.8229264225150662e+04  -2.8251210263836514e+04  -2.8177352522088255e+04  -2.8174434894497997e+04  -2.8176707815395461e+04  -2.8176443010563682e+04  -2.8187677787002784e+04  -2.8100481278009400e+04  -2.8048887881502036e+04  -2.7956828323769776e+04  -2.7915366272340860e+04  -2.7889039275907191e+04  -2.7891491304048879e+04  -2.7896546782244779e+04  -2.7896259064273760e+04  -2.7896342973452269e+04  -2.7896404698128983e+04  -2.7899129660991359e+04  -2.7844942224788480e+04  -2.7631783876646008e+04  -2.7531258891097510e+04  -2.7453024602993548e+04  -2.7350090974056471e+04  -2.8129575627557420e+04  -3.3080743015129534e+04  -3.4343571172344527e+04  -4.1443972458337688e+04  -4.2789735242901756e+04  -4.2487648726106032e+04  -4.2141582403243956e+04  -4.3598339498222005e+04  -4.3406757553817246e+04  -4.3291867747028075e+04  -4.1248932883609727e+04  -3.7141761756319211e+04  -3.4220136062296311e+04  -3.4217027724068961e+04  -3.4205180369123780e+04  -3.4110956029397785e+04  -3.4107324075940465e+04  -3.4094135601300644e+04  -3.4092531057945038e+04  -3.4091803431620719e+04  -3.4091381768471947e+04  -3.4091074669257228e+04  -3.4091015094382703e+04  -3.4090158561101154e+04  -3.4089830071288932e+04  -3.4094111661039802e+04  -3.4096438896122629e+04  -3.4099808322246681e+04  -3.4139958588559544e+04  -3.4138952363317469e+04  -3.4376660162039574e+04  -3.3124619114185451e+04  -3.0396142103132232e+04  -2.9622788177631901e+04  -2.9586755842683542e+04  -2.9482570716363458e+04  -2.9222525717413344e+04  -2.6662812690630934e+04  -2.6188517770204493e+04  -2.6174439799704422e+04  -2.6154839009314328e+04  -2.6006762408706163e+04  -2.6197000161475207e+04  -2.6751331198986318e+04  -2.7029459274196302e+04  -2.7602721654091289e+04  -2.7615910985230130e+04  -2.7652513632218284e+04  -2.7630282536189821e+04  -2.7674538555334388e+04  -2.7858121750734004e+04  -2.7814972659679133e+04  -2.7259931970622420e+04  -2.6258834470373688e+04  -2.5871464603398126e+04  -2.6115113350296775e+04  -2.6730775359267493e+04  -2.7105789544820313e+04  -2.7059424848026560e+04  -2.5259623681162127e+04  -2.3503170695971177e+04  -2.3428505021660982e+04  -2.6142565649513155e+04  -2.2892681298230575e+04  -2.2492060114540673e+04  -2.3123903602235343e+04  -2.3655480869455314e+04  -2.2917838913265976e+04  -2.2947977695701255e+04  -2.3119922786252424e+04  -2.3317196954222763e+04  -2.3270817280224568e+04  -2.3190949606869221e+04  -2.3382208831775766e+04  -2.2955482676326748e+04  -2.2769882137235592e+04  -2.2978593151168236e+04  -2.7516698380076115e+04  -2.6198160634053529e+04  -2.6019809937327067e+04  -2.7701505251272185e+04  -2.6550865222182780e+04  -2.5039988536603432e+04  -2.5710575549398276e+04  -2.5884221258213725e+04  -2.5901660709895496e+04  -2.5895096116146477e+04  -2.5900263539889860e+04  -2.5995637331104863e+04  -2.6095503428106971e+04  -2.6177920977400117e+04  -2.6234012810432079e+04  -2.6218827758914911e+04  -2.6200738486638307e+04  -2.6198062334173363e+04  -2.6196981871380551e+04  -2.6202080462780992e+04  -2.6522264886543155e+04  -2.6965715163645560e+04  -2.7848097942271183e+04  -2.7886816041408809e+04  -2.7919203868280998e+04  -2.8002334173752814e+04  -2.8112052863649780e+04  -2.8189885490351404e+04  -2.8215425890287184e+04  -2.8205145082350773e+04  -2.7959950162852030e+04  -2.7723801776584321e+04  -2.7659204096211630e+04  -2.7398498590604642e+04  -2.7435916896338225e+04  -2.7277989822375399e+04  -2.7196551736043584e+04  -2.7222840194959059e+04  -2.6731861690808215e+04  -2.6513022364512835e+04  -2.5637504625174060e+04  -2.5387897995519063e+04  -2.5776105237932046e+04  -2.6092287454880079e+04  -2.6140986700363639e+04  -2.5886029314007512e+04  -1.9299014928377619e+04  -1.8138238129566540e+04  -1.9161052263013888e+04  -2.0087774200606662e+04  -2.0160733831024547e+04  -2.0159201420915306e+04  -2.0093050676435276e+04  -2.0087138261253986e+04  -2.0087401085499641e+04  -2.0087633171327103e+04  -2.0083438697816498e+04  -2.0058377788262300e+04  -2.0890801796384607e+04  -2.4963461889895822e+04  -2.6012265572206965e+04  -2.6169105446812042e+04  -2.6196810724512405e+04  -2.6090044505120517e+04  -2.6071182522429848e+04  -2.5905387047159729e+04  -2.5940262655009683e+04  -2.6012209423191223e+04  -2.5780099187153937e+04  -2.5561940503669313e+04  -2.5707336066694676e+04  -2.6062994697844584e+04  -2.6413025135002466e+04  -2.4119754706163665e+04  -2.2367337840199041e+04  -2.0132602398902076e+04  -1.7621846092405209e+04  -1.6333462287795126e+04  -1.5339385813727104e+04  -1.6658027595327083e+04  -1.6624493099424413e+04  -1.6817319366692413e+04  -1.6987063616276675e+04  -1.6989701966009019e+04  -1.6980536778894286e+04  -1.7202744581678253e+04  -1.8436401423463049e+04  -2.1115290622092594e+04  -2.1666338382033471e+04  -2.1679299384253758e+04  -2.1614336389650609e+04  -2.0819414800532282e+04  -2.0886255305319966e+04  -2.0106928074189371e+04  -2.0089776585302599e+04  -2.0133816256162627e+04  -2.0136777427499521e+04  -2.0243441704651221e+04  -1.9943751958039429e+04  -1.8795723893934861e+04  -1.7922460433712651e+04  -1.7798035905686262e+04  -1.6681132817938174e+04  -1.6787558198486029e+04  -1.7427471105242446e+04  -1.7430448600123673e+04  -1.6827173896865919e+04  -1.7183327281193342e+04  -1.9311804098108893e+04  -2.1199251496511381e+04  -2.0570638356041138e+04  -2.0420629749347529e+04  -1.9484940843331540e+04  -1.7145450485190457e+04  -1.6981508323232145e+04  -1.6857847017756110e+04  -2.0677684184897284e+04  -1.7381264840587235e+04  -2.1388011928614455e+04  -2.1748876655264819e+04  -1.8375523704339841e+04  -1.7065980999878699e+04  -1.9211929176479425e+04  -2.1275339789871330e+04  -9.0089425578805822e+03  -6.1904519363958343e+03  -2.2250826490179184e+03  -1.4382786023961141e+03  -7.6847981525320074e+02  -9.1020578228898671e+02  -1.4559251905663516e+03  -1.6253243352314087e+03  -1.5348116036994552e+03  -1.5127563702176076e+03  -2.6836070555635133e+03  -2.9223060388244794e+03  -3.4261142354702115e+03  -6.0875176377313246e+03  -6.0911299322642553e+03  -6.0503909717513325e+03  -6.0495231498300827e+03  -6.0492818006093503e+03  -6.0493050139291363e+03  -6.0601400176336692e+03  -6.0158041112973851e+03  -6.3907353447954547e+03  -6.5226425817340105e+03  -8.3985365719802576e+03  -1.3924318586515023e+04  -1.4478624850467202e+04  -1.4627602178862595e+04  -1.4531211711422173e+04  -2.1230764536558647e+04  -2.1511004150464199e+04  -2.2444423870893788e+04  -2.3811237677387271e+04  -2.0195920139576730e+04  -2.0282533206505719e+04  -1.8684571333743130e+04  -1.7143762742233630e+04  -1.7690662399438785e+04  -1.7799900520464969e+04  -1.7843739563479925e+04  -1.7844555225833941e+04  -1.7844538833724248e+04  -1.7844505864798200e+04  -1.7844535325715002e+04  -1.7844532268414383e+04  -1.7844086523632970e+04  -1.7918404922785419e+04  -1.7912443735868710e+04  -1.8029162699785269e+04  -1.7929006437427652e+04  -1.6750936312719539e+04  -1.7207714480651273e+04  -1.7378153876995228e+04  -1.7594561915091988e+04  -1.6297228689395730e+04  -1.2866495014113909e+04  -1.1082070799401090e+04  -1.0726240661115187e+04  -1.0784750716425189e+04  -1.0803449043010593e+04  -1.0804550380561224e+04  -1.0804674013748398e+04  -1.0809365709195878e+04  -1.0840740780335833e+04  -1.0558430959486164e+04  -3.6801592003496199e+02  -1.8452591789072594e+02  -4.4800625510911863e+02  -8.2787955825146696e+02  -1.3414128673092505e+03  -1.1417918193636995e+03  -8.5865388356423102e+02  -6.8859527587125865e+02  -1.0476551743233863e+03  -7.9064221605702153e+02  -7.4133916873328337e+02  -1.3263347752689874e+03  -2.1978658619804687e+03  -1.9104157375697459e+03  -1.0881304890013348e+03  -1.0997781503278206e+03  -1.8482043042421692e+03  -2.4256810853953984e+03  -3.1918866678386785e+03  -3.1525281711115981e+03  -3.1385304899829262e+03  -3.8541723592135390e+03  -4.5945333782778571e+03  -3.9226460007362807e+03  -2.5476218483399944e+03  -2.0712833374338729e+03  -2.0101971542082943e+03  -1.4416933668913493e+03  -2.8200280462338383e+03  -2.7199356997250552e+03  -4.6034844463938052e+03  -5.7078758053165875e+03  -6.5260886229123498e+03  -6.5964100785753317e+03  -6.1478730688864916e+03  -3.7306131795623637e+03  -2.1428258284480413e+04  -1.9899907530932036e+04  -2.0294756672528190e+04  -1.9316428947869506e+04  -2.1214033288876344e+04  -2.2976995868202092e+04  -2.2136649996907745e+04  -2.1893676047929013e+04  -2.5370344454666840e+04  -2.5472295524804711e+04  -2.6793538914969369e+04  -2.7493869197360676e+04  -2.0038893905383517e+04  -1.9978189123324537e+04  -2.0480033782929848e+04  -2.1411319145035744e+04  -2.1654722701924758e+04  -2.1666726886207161e+04  -2.1683336936508116e+04  -2.1980019564712900e+04  -2.3101988749843487e+04  -2.3543511305082971e+04  -2.4017717603950856e+04  -2.3933394970808175e+04  -2.3935176887962181e+04  -2.3894241194870119e+04  -2.4167031162903724e+04  -2.5313997741075091e+04  -2.6073427554703667e+04  -2.6225493198659467e+04  -2.6176334226665924e+04  -2.6148998211813134e+04  -2.5685604221952093e+04  -2.5586365281117603e+04  -2.5567787248659461e+04  -2.5598970892949739e+04  -2.5259626714300583e+04  -2.1153660173730314e+04  -2.1274822683747982e+04  -2.1514705311304308e+04  -2.2237541808828304e+04  -2.2441465838598404e+04  -2.1684226981474880e+04  -2.1673457145163240e+04  -2.1709232750506348e+04  -2.1713327130890997e+04  -2.1737474935288050e+04  -2.1857340556348743e+04  -2.2124270915017209e+04  -2.2068085535003589e+04  -2.2203977907582837e+04  -2.2011904653038266e+04  -2.2021992579881429e+04  -2.2022791247969366e+04  -2.0462891515160620e+04  -1.4784618471470416e+04  -1.4177127442104786e+04  -1.4240789837164313e+04  -1.4396258937434755e+04  -1.5855607587250932e+04  -1.5911334911603144e+04  -1.5961738436684092e+04  -1.5937834351190382e+04  -1.6433415508787246e+04  -1.6500825871509383e+04  -1.7413734819573609e+04  -1.7643669788900050e+04  -1.7744482936004853e+04  -1.8680789387934252e+04  -2.2581594479840249e+04  -2.3330896550882353e+04  -2.3004318697583836e+04  -2.2935265238277090e+04  -2.2378805304445221e+04  -2.2242088120973400e+04  -2.2259714959396711e+04  -2.2255027841001320e+04  -2.2259886097095768e+04  -2.2255479919741541e+04  -2.2306653884320134e+04  -2.2093530467747823e+04  -2.2094891285354195e+04  -2.1718323636809520e+04  -2.1219275250568924e+04  -2.1475455389172661e+04  -2.1509198584928828e+04  -2.1549129541673119e+04  -2.1626445739537176e+04  -6.8483026963381080e+03  -6.3378136163551171e+03  -6.4827253025728323e+03  -7.6974080828096539e+03  -1.0608238621914468e+04  -1.4191414085211396e+04  -1.5318201862689551e+04  -1.6377682480851143e+04  -1.6050937778797830e+04  -1.5995359154673142e+04  -1.5969872603839493e+04  -1.5959332092368781e+04  -1.5917326889839931e+04  -1.4182326416398580e+04  -9.4611385788552871e+03  -7.1592598903665985e+03  -6.2671303643805531e+03  -5.0833459832954131e+03  -7.2482922164007241e+03  -9.2824682341149582e+03  -1.1594655864365606e+04  -1.3349847165893518e+04  -1.6919800675768744e+04  -1.6060658773391860e+04  -1.1483665316739382e+04  -7.1847222495864571e+03  -6.2655607291299521e+03  -6.3577664895394464e+03  -1.7301656943083170e+04  -1.5986765640653191e+04  -1.5881932183508246e+04  -1.7796223349593700e+04  -1.8097608766228423e+04  -1.5895756879571025e+04  -1.5773123939445788e+04  -1.6981164146578514e+04  -1.9179640076135638e+04  -2.2315322892710326e+04  -2.2833156640426812e+04  -2.2897160985472870e+04  -2.2697984570629986e+04  -2.1697440970671432e+04  -2.2169056412299295e+04  -2.3496354266710296e+04  -2.4720946631941402e+04  -2.3039138274911951e+04  -2.3110986912186119e+04  -2.4658304758151418e+04  -2.6091748912267420e+04  -2.5829149299259527e+04  -2.6129430578067717e+04  -2.7014209659575954e+04  -2.2432581632660527e+04  -2.1938446696708368e+04  -3.3644662383933646e+04  -2.2833443028183294e+04  -2.2830863009671964e+04  -2.3760703021566573e+04  -2.3748311674284985e+04  -2.3996923069050725e+04  -2.3850882848755191e+04  -2.2995804998719814e+04  -2.2994012696947360e+04  -2.2648133751089077e+04  -2.2826986237524565e+04  -2.3017323443644411e+04  -2.2023782675384442e+04  -2.1411515199011770e+04  -2.1960159141775766e+04  -2.2021781066065272e+04  -2.2128436390036484e+04  -2.2199515683886351e+04  -2.2557905955577899e+04  -2.2969598997820194e+04  -2.3086744163580290e+04  -2.3135732547188902e+04  -2.3173373525316150e+04  -2.2923932090739836e+04  -2.3012394437964442e+04  -2.3066609993315229e+04  -2.2942144116846252e+04  -2.2345652832318105e+04  -2.2724890726011916e+04  -2.1693476881029364e+04  -2.2382115836336503e+04  -2.3235846987985951e+04  -2.6021758676020996e+04  -2.4575016691414992e+04  -2.5042327698655012e+04  -2.6382247839097570e+04  -2.6075029496109299e+04  -2.5629592722862279e+04  -2.6783098991985822e+04  -2.7234492552166244e+04  -2.6431308071315420e+04  -2.6010701581958361e+04  -2.5941792907225885e+04  -2.6389052402553330e+04  -2.6994394219395981e+04  -2.7156662302598757e+04  -2.7032428793609841e+04  -2.6721791665026358e+04  -2.3558099352389323e+04  -2.3238118420117782e+04  -2.3885230909455317e+04  -2.6427739678097147e+04  -2.6221325592279034e+04  -2.5525898514524113e+04  -2.8702606759148635e+04  -2.5544961340991656e+04  -2.6570282803350357e+04  -2.7260155988622442e+04  -2.7212262097292511e+04  -2.8252913999095908e+04  -3.2358235267138269e+04  -3.4938531449524751e+04  -3.4572372154840130e+04  -3.4550793589764377e+04  -3.4518540811072977e+04  -3.2846928159247989e+04  -5.8023603469315553e+04  -5.8150943439115959e+04  -5.9415094339760384e+04  -5.9759937221138287e+04  -6.0117021949995316e+04  -6.0909172055859301e+04  -6.2442454210066266e+04  -5.8231197458879687e+04  -5.8217356918033038e+04  -5.8220812078853196e+04  -4.3071087453722495e+04  -3.9217592526252425e+04  -3.4060924688887499e+04  -3.4662827456121777e+04  -3.4762532725112374e+04  -3.4768752812137674e+04  -3.4763250494970991e+04  -3.4760850206030838e+04  -3.4781264347535900e+04  -3.4801098824233937e+04  -3.4752595190885986e+04  -3.6387501390681195e+04  -3.7133300703955349e+04  -3.7161286138784330e+04  -3.7101911173699496e+04  -3.7192815685807247e+04  -4.1656422752496313e+04  -4.8471956479023509e+04  -5.2395399632844914e+04  -5.5537431526817629e+04  -5.8244336486504886e+04  -5.7986774096119996e+04  -5.7989905411123618e+04  -5.7999517291565688e+04  -5.7975901032125439e+04  -5.7989395175992860e+04  -5.8041507568177716e+04  -5.7907476169414556e+04  -4.4469830943117486e+04  -4.2942158251710724e+04  -3.4969304145485832e+04  -3.4497403778241664e+04  -3.4319882942223441e+04  -3.4741064088923951e+04  -3.4369189937223789e+04  -3.4404429842998376e+04  -3.4612525493170921e+04  -3.4720501526502412e+04  -3.5916330286124037e+04  -3.6458567002236108e+04  -3.4807056864533944e+04  -3.4365731911410665e+04  -2.8260819156151243e+04  -2.7893642799326779e+04  -2.8774091928806138e+04  -2.9545941011679552e+04  -2.9541880168734875e+04  -2.9105291583127510e+04  -3.1640333757103570e+04  -3.5238133556724519e+04  -3.4662115284781663e+04  -3.1649050496535525e+04  -2.6581345303755865e+04  -2.6615642616812172e+04  -2.6961325104573330e+04  -2.7021061034071779e+04  -2.7002947105586794e+04  -2.7144215653704265e+04  -2.7531610667636087e+04  -2.7938624605508259e+04  -2.7857282906557073e+04  -2.7816694794479830e+04  -2.7543591083472769e+04  -2.8339263727701018e+04  -2.9944657528621316e+04  -2.9580793622740472e+04  -2.9197460836884809e+04  -2.8710901035830149e+04  -2.8157702959735856e+04  -2.8311530352347007e+04  -2.7501242259456969e+04  -2.6820756776109836e+04  -2.6676010700918319e+04  -2.6653145369967126e+04  -2.6690690189407138e+04  -2.6033912132563011e+04  -2.6041361981528782e+04  -2.6209580948066618e+04  -2.6509097854222327e+04  -2.6653164120583882e+04  -2.6711119049336401e+04  -2.6693671882439638e+04  -2.6625703350902178e+04  -2.7027283153087817e+04  -2.7301112253222105e+04  -2.7573003403482773e+04  -2.7929931542183513e+04  -2.7798825522308551e+04  -2.7570608948151938e+04  -2.7417404232073000e+04  -2.7469315523544105e+04  -2.7251225042090264e+04  -2.2882585462594056e+04  -2.2512975049386278e+04  -2.2270998658123473e+04  -2.3361310621656186e+04  -2.4187663278942135e+04  -2.3806594415040148e+04  -2.4055518615863693e+04  -2.5610518936873617e+04  -2.6085239530825416e+04  -2.6037263891011498e+04  -2.6500646686199096e+04  -2.5670517885050918e+04  -2.3334624345741759e+04  -2.2962650427737641e+04  -2.3774389618487614e+04  -2.2966782332977906e+04  -2.3214562400944968e+04  -2.3687733583058620e+04  -2.3008277842317133e+04  -2.2959592040508142e+04  -2.3900885094719935e+04  -2.4718140434813427e+04  -2.6424432893444548e+04  -2.5956454915064453e+04  -2.5878571713609137e+04  -2.7044502904503810e+04  -2.6251197263310030e+04  -2.6017967418250610e+04  -2.5601729495108782e+04  -2.5618739143712857e+04  -2.6306082428473896e+04  -2.7579668820710769e+04  -2.7457159307