<?xml version="1.0"?>
<VTKFile type="UnstructuredGrid"  version="0.1"  >
<UnstructuredGrid>
<Piece  NumberOfPoints="22441" NumberOfCells="40032">
<Points>
<DataArray  type="Float64"  NumberOfComponents="3"  format="ascii">0 1 0  0 0 0  1 0 0  1 1 0  0.06421852509768232 0.9682539682539681 0  0.06964722026641869 0.9523809523809523 0  0.06349206349206349 0.9444332889252413 0  0.05687437872600694 0.9365079365079365 0  0.06324598462700388 0.9206349206349206 0  0.04809141400037913 0.9047619047619047 0  0.04761904761904762 0.9043917319710525 0  0.03174603174603174 0.8951568807382518 0  0.02626579862768711 0.8888888888888888 0  0.01587301587301587 0.8841239889064104 0  0.01585482745494342 0.8888888888888888 0  0.01581893619404356 0.9047619047619047 0  0.01585797515490196 0.9206349206349206 0  0.01585710678041044 0.9365079365079365 0  0.01587301587301587 0.9452393985415739 0  0.03174603174603174 0.9510920971236986 0  0.03319932107567881 0.9523809523809523 0  0.03174603174603174 0.9529280788575529 0  0.01587301587301587 0.9592907486474118 0  0.0158561421119106 0.9682539682539681 0  0.01586166056542051 0.9841269841269841 0  0.01587301587301587 0.9841383286069326 0  0.03174603174603174 0.9841558497090436 0  0.04381976050193807 0.9841269841269841 0  0.04761904761904762 0.9787496330914822 0  0.06123343545236704 0.9841269841269841 0  0.06349206349206349 0.9841284961898851 0  0.06394380773597563 0.9841269841269841 0  0.1111111111111111 0.8839111299889008 0  0.1267078528446891 0.873015873015873 0  0.1111111111111111 0.8643402957845827 0  0.1054468672566038 0.8571428571428571 0  0.1025543992009606 0.8412698412698412 0  0.1111111111111111 0.8375113034938789 0  0.1202944887203824 0.8253968253968254 0  0.1163137814134395 0.8095238095238095 0  0.1111111111111111 0.7994772444392872 0  0.1037094526057736 0.8095238095238095 0  0.09523809523809523 0.8219533290740516 0  0.08389794206622389 0.8095238095238095 0  0.09523809523809523 0.8008610955249955 0  0.1051045647947118 0.7936507936507936 0  0.1111111111111111 0.7889627336439829 0  0.119554437284113 0.7777777777777777 0  0.115381539570102 0.7619047619047619 0  0.1111111111111111 0.7505524172798661 0  0.09523809523809523 0.7540246756097889 0  0.07936507936507936 0.7501691636371853 0  0.07233582749596816 0.746031746031746 0  0.06359868335695776 0.7301587301587301 0  0.06349206349206349 0.7300341201597805 0  0.06306536802068405 0.7301587301587301 0  0.05111315791799912 0.746031746031746 0  0.04761904761904762 0.7561105396112254 0  0.03936422577757931 0.746031746031746 0  0.03174603174603174 0.7445621827972388 0  0.0256686348092368 0.746031746031746 0  0.01751153031241491 0.7619047619047619 0  0.02423003498745378 0.7777777777777777 0  0.01587301587301587 0.791572449458803 0  0.01586815347458532 0.7936507936507936 0  0.01587301587301587 0.7975864549051256 0  0.03174603174603174 0.806569539427846 0  0.03419010862590954 0.8095238095238095 0  0.04761904761904762 0.8212148350908465 0  0.05164178424779017 0.8253968253968254 0  0.05098590322763307 0.8412698412698412 0  0.06349206349206349 0.8501512691627024 0  0.07936507936507936 0.8459945797063819 0  0.08748270236801868 0.8571428571428571 0  0.0946999403178975 0.873015873015873 0  0.09160261914906997 0.8888888888888888 0  0.08226227061841325 0.9047619047619047 0  0.07936507936507936 0.9109687240231008 0  0.06453003888607434 0.9206349206349206 0  0.07936507936507936 0.9271721066959553 0  0.09333954571232141 0.9365079365079365 0  0.09523809523809523 0.9375840785624352 0  0.09592389405316522 0.9365079365079365 0  0.1111111111111111 0.9227858802876768 0  0.1210876312029152 0.9206349206349206 0  0.1218791581300059 0.9047619047619047 0  0.1111111111111111 0.891083804731581 0  0.104321466541762 0.8888888888888888 0  0.126984126984127 0.8726537157537042 0  0.1312938691314055 0.8571428571428571 0  0.126984126984127 0.8513061136153193 0  0.1194022239154673 0.8571428571428571 0  0.1428571428571428 0.7979665723437739 0  0.1574022234189074 0.7936507936507936 0  0.1472669960667243 0.7777777777777777 0  0.1428571428571428 0.7722828421936114 0  0.1361556965637997 0.7777777777777777 0  0.126984126984127 0.7910133268059 0  0.1223022685692725 0.7936507936507936 0  0.126984126984127 0.7953299048383278 0  0.1796211640104055 0.6984126984126984 0  0.1812199620440106 0.6825396825396826 0  0.1771039303899643 0.6666666666666666 0  0.1746031746031746 0.6636571870597396 0  0.1587301587301587 0.6530245747988206 0  0.1516364882909463 0.6666666666666666 0  0.1428571428571428 0.6752536117193281 0  0.1271024699901225 0.6825396825396826 0  0.1428571428571428 0.6946179519557442 0  0.158614076089896 0.6984126984126984 0  0.1587301587301587 0.6995982763501398 0  0.1746031746031746 0.7018599442254767 0  0.2698412698412698 0.6275151754038434 0  0.2824293890369667 0.6190476190476191 0  0.2793892899251419 0.6031746031746031 0  0.2698412698412698 0.5917380093253651 0  0.2633208090966649 0.5873015873015872 0  0.253968253968254 0.5861380914685455 0  0.2380952380952381 0.5867944152217239 0  0.2246719809269859 0.5714285714285714 0  0.2222222222222222 0.5665033832349908 0  0.2063492063492063 0.562368131395275 0  0.1956392100679505 0.5555555555555556 0  0.2057249340123058 0.5396825396825397 0  0.1904761904761905 0.5323013040563001 0  0.1746068128302253 0.5396825396825397 0  0.1746031746031746 0.5396892108308448 0  0.1716680317848936 0.5555555555555556 0  0.1667035260114133 0.5714285714285714 0  0.1746031746031746 0.5855121988465476 0  0.1755155080163235 0.5873015873015872 0  0.1746031746031746 0.5882402223109868 0  0.1737170003479516 0.5873015873015872 0  0.1587301587301587 0.576501670268878 0  0.1504967840800143 0.5873015873015872 0  0.1528947068464866 0.6031746031746031 0  0.1587301587301587 0.6126287131729804 0  0.1703847009274189 0.6190476190476191 0  0.1587301587301587 0.6245130824653231 0  0.1545300750362012 0.6349206349206349 0  0.1587301587301587 0.6449994676727128 0  0.1746031746031746 0.6432955440156103 0  0.1896209718450516 0.6349206349206349 0  0.1904761904761905 0.6307627300638411 0  0.1988924898062247 0.6190476190476191 0  0.2063492063492063 0.612992330013897 0  0.2108673011477152 0.6190476190476191 0  0.2222222222222222 0.6231459438470834 0  0.232436755700484 0.6190476190476191 0  0.2380952380952381 0.6142126056951785 0  0.253968253968254 0.6130214894015541 0  0.2616066344557758 0.6190476190476191 0  0.2857142857142857 0.4397308313271667 0  0.2993154050698242 0.4285714285714285 0  0.2857142857142857 0.4196805047798435 0  0.2731151938185038 0.4285714285714285 0  0.3836609207662339 0.2857142857142857 0  0.3902203003216285 0.2698412698412698 0  0.3809523809523809 0.2588681146152163 0  0.373644838100752 0.253968253968254 0  0.3650793650793651 0.2436120457240887 0  0.3492063492063492 0.2524517582553757 0  0.339330798266541 0.2380952380952381 0  0.3348671181008898 0.2222222222222222 0  0.3333333333333333 0.2199533970922178 0  0.325697136247348 0.2222222222222222 0  0.3174603174603174 0.2264720548902616 0  0.3146428184758807 0.2380952380952381 0  0.3015873015873016 0.2482670261989105 0  0.2958975237602495 0.253968253968254 0  0.2980201750916553 0.2698412698412698 0  0.3015873015873016 0.2814270650166871 0  0.3156816183229603 0.2698412698412698 0  0.3174603174603174 0.2684655790760218 0  0.3190614969574576 0.2698412698412698 0  0.3333333333333333 0.2839157002698057 0  0.3492063492063492 0.2736140514828313 0  0.3650793650793651 0.2818059147575788 0  0.3760045117744532 0.2857142857142857 0  0.3809523809523809 0.2876999586978841 0  0.4603174603174603 0.146915347730341 0  0.4612759376221224 0.1428571428571428 0  0.4603174603174603 0.1410863290019336 0  0.4444444444444444 0.1352123607946744 0  0.4285714285714285 0.1389978260592476 0  0.4255581202029225 0.126984126984127 0  0.4126984126984127 0.1141700520023271 0  0.4068754507163788 0.1111111111111111 0  0.3968253968253968 0.09930558979080928 0  0.3809523809523809 0.09575940935764141 0  0.3794988739448027 0.09523809523809523 0  0.3658515228205535 0.07936507936507936 0  0.3650793650793651 0.07723500257532259 0  0.3622162548025775 0.07936507936507936 0  0.3521924399349237 0.09523809523809523 0  0.361495961104406 0.1111111111111111 0  0.35779885037157 0.126984126984127 0  0.3650793650793651 0.1368850790871635 0  0.3665986151302906 0.1428571428571428 0  0.3650793650793651 0.1522497963386735 0  0.3492063492063492 0.1485672075983815 0  0.334188452321426 0.1587301587301587 0  0.3399731847558914 0.1746031746031746 0  0.3450202602924747 0.1904761904761905 0  0.3455316093541224 0.2063492063492063 0  0.3492063492063492 0.208919480987379 0  0.3580112647919073 0.2222222222222222 0  0.3650793650793651 0.2340421477159691 0  0.3809523809523809 0.2242589166914388 0  0.3932947765624943 0.2222222222222222 0  0.3809523809523809 0.2192563298065739 0  0.3703257590013715 0.2063492063492063 0  0.3809523809523809 0.1935579472561114 0  0.3916408184282182 0.2063492063492063 0  0.3968253968253968 0.2203279346312648 0  0.405980696611446 0.2063492063492063 0  0.4126984126984127 0.2019452825606936 0  0.4187251534850137 0.1904761904761905 0  0.4126984126984127 0.17466699040646 0  0.4126335096229047 0.1746031746031746 0  0.4003944812153047 0.1587301587301587 0  0.4126984126984127 0.1541080758241277 0  0.4232710054209007 0.1587301587301587 0  0.4285714285714285 0.1624650943942817 0  0.4365173970808257 0.1587301587301587 0  0.4444444444444444 0.1503057664271795 0  0.4603174603174603 0.09152342640697261 0  0.471160868538769 0.07936507936507936 0  0.4629992698446178 0.06349206349206349 0  0.4603174603174603 0.06190345795643597 0  0.4587021409565548 0.06349206349206349 0  0.4478244686818235 0.07936507936507936 0  0.4603174603174603 0.03756364836251632 0  0.4741809652117253 0.03174603174603174 0  0.4603174603174603 0.02676469923583802 0  0.4510047108918527 0.03174603174603174 0  0.4444444444444444 0.1117138914097975 0  0.4446058818246006 0.1111111111111111 0  0.4444444444444444 0.1108760223974125 0  0.4429955617176202 0.1111111111111111 0  0.4285714285714285 0.0831102392987039 0
[...]
<PointData  Scalars="f_32-1"> 
<DataArray  type="Float64"  Name="f_32-1"  format="ascii">-2.8404011796168292e+04  -2.5860032861860469e+04  1.8924958672253564e+04  1.1235630427481699e+04  -1.2801081501564307e+04  -1.2797104924254374e+04  -1.3050021431809324e+04  -1.3036877057394246e+04  -2.8549558139753339e+04  -3.3712538474104949e+04  -3.3731006050402757e+04  -3.3685385346513387e+04  -3.3666571349364684e+04  -3.4077806634873574e+04  -3.5516160599985116e+04  -3.6099114810980209e+04  -3.6196989995370903e+04  -3.5672737521255913e+04  -3.4402597932244156e+04  -3.4270975386179365e+04  -3.4331491959723797e+04  -3.4336234047311635e+04  -3.4136931825689673e+04  -3.2236759350075179e+04  -4.3735602673888723e+04  -1.3236927497758612e+04  -2.2520329843584554e+04  -1.8324275116654586e+04  -1.7430070656283988e+04  -1.7199291505292029e+04  -1.6724504184682504e+04  -1.0970298632948297e+04  -1.0635323135415343e+04  -9.8384578759980159e+03  -6.2644179540005607e+03  -6.2643365770321980e+03  -6.2717972383178439e+03  -6.2968288092434132e+03  -6.2666602427737034e+03  -6.2411075420400157e+03  -6.9835340448029847e+03  -6.9869684559042507e+03  -6.9876653675058715e+03  -6.9876327002271983e+03  -6.9887736141405339e+03  -6.9597019356240844e+03  -6.9282631813775706e+03  -8.0828903662248522e+03  -8.2752804736440012e+03  -1.0050130586613312e+04  -1.0437983514875374e+04  -1.0426194393337430e+04  -1.0358583720419445e+04  -8.7071383809832641e+03  -1.1258034014030232e+04  -1.2525523089986071e+04  -1.1499174906768119e+04  -1.1453521814811473e+04  -1.1260673736618299e+04  -1.0840559452605183e+04  -1.2122681324023508e+04  -1.6822443164583277e+04  -1.9883718072671014e+04  -2.1627215276719038e+04  -2.4037967317022336e+04  -2.7015591583474506e+04  -2.7601716241028207e+04  -2.8390727703697030e+04  -3.3273772313529320e+04  -3.3506123286909402e+04  -3.3802655405921352e+04  -3.3717245274718582e+04  -3.3706675986389753e+04  -3.3709138404539415e+04  -3.3706945005670059e+04  -3.3709144531208694e+04  -3.3718297833361954e+04  -3.3478985978574383e+04  -2.0613063149826070e+04  -1.2908730256308732e+04  -1.3091077199389565e+04  -1.2927966717713796e+04  -1.2536865503072793e+04  -1.2723604079783978e+04  -1.2507134770747518e+04  -1.1458849575601429e+04  -1.0405490086367437e+04  -1.0411207147230234e+04  -8.1673047773090348e+03  -6.4479309833921043e+03  -6.1249857047930154e+03  -6.2676458470101852e+03  -6.1742764354101964e+03  -4.7931764536952505e+03  -4.9162713018822424e+03  -7.9284418323011560e+03  -8.8897561710658629e+03  -7.8914061333624313e+03  -6.9939037503909376e+03  -6.1933492590564547e+03  -4.2232252932906995e+03  -4.2976241319984101e+03  -4.2445455120803636e+03  -4.5592217845938058e+03  -8.7658904937524367e+03  -1.0729114092039694e+04  -1.0757124924799944e+04  -1.0922409362369084e+04  -1.0163803609723996e+04  -1.0018671115867148e+04  -8.2577865796713868e+03  -4.8277911666359769e+03  -4.0374150961238661e+03  -3.6674073840312681e+03  -4.0199024798138439e+03  -4.0855172429872164e+03  -4.3024047522145411e+03  -4.5575809069517491e+03  -4.5993102183355477e+03  -4.5332344066205869e+03  -4.7821979628161052e+03  -4.7763762862791737e+03  -4.7670839072972849e+03  -4.7241436683710972e+03  -5.4899421035494488e+03  -7.6804049041056342e+03  -9.2321877843041275e+03  -9.1862141982682933e+03  -9.2747623117154071e+03  -9.2398312057539515e+03  -9.2428236821187402e+03  -9.2397297307007739e+03  -9.2408313654859212e+03  -9.3524310794458379e+03  -9.9356449877490631e+03  -1.0450543413737920e+04  -1.0672882927631450e+04  -1.0611982926570116e+04  -1.0547114149911535e+04  -1.0803372547671712e+04  -9.3539362978367371e+03  -4.5623538130789393e+03  -4.3969668079674429e+03  -4.3412106224425697e+03  -4.3018721408375022e+03  -4.3079910309134330e+03  -4.3021065848299386e+03  -4.3180998835237579e+03  -4.2263076302525496e+03  -4.2194960383990001e+03  -4.2345814773023194e+03  -4.2310870311058061e+03  -4.4952355501941820e+03  -4.2183448443761017e+03  -5.0307267567703402e+03  -4.9524885511144603e+03  -6.9288569039395654e+01  2.5571660766679551e+02  2.2388126918274648e+02  7.3860056246075857e+01  -8.9078766378377816e+02  -1.6620086288424554e+03  -1.7470458619842459e+03  -1.9997228434464328e+03  -2.6443322569206721e+03  -2.9902632322643844e+03  -5.2092019123874388e+03  -5.3305333215989394e+03  -5.3956884638763731e+03  -5.4437967355361061e+03  -5.2515254562609289e+03  -4.9144592012690646e+03  -4.6969344277587297e+03  -4.6497534633899331e+03  -4.6537146888895359e+03  -3.7396363546979160e+03  -3.5114458617880478e+03  -2.7102172383648513e+03  -7.7068275933899213e+02  -3.8397967170512891e+02  3.4230670292921191e+03  3.9564335593713813e+03  3.2980906460396227e+03  2.9262429744700476e+03  2.8747711128177812e+03  2.8929240088616166e+03  2.4890458487878018e+03  2.4022601040648005e+03  2.1248048210559627e+03  1.9120890177467304e+03  2.0225778426558020e+03  2.8250328011467136e+03  1.4781053866777463e+03  3.2604303179266140e+02  -1.8983062347936891e+03  -2.0618041903925905e+03  -2.2676613448942267e+03  -2.4069805527687022e+03  -2.3774905972621250e+03  -2.3709468399736948e+03  -2.3203058196550064e+03  -2.9574007270964480e+03  -3.0249582790052818e+03  -2.7569737093346657e+03  -2.5036199398454464e+03  -2.2115617394436263e+03  -1.8670650897565097e+03  -8.6739923377844161e+02  1.0646687829305085e+02  1.8866088548310245e+02  2.1771083401035415e+02  2.1717161578910034e+02  2.1712027623192088e+02  2.1629833088696489e+02  4.4975552468319813e+02  2.4802899498043512e+03  2.6411916357782266e+03  2.7591739966222790e+03  2.8632892393561165e+03  2.8693643085955241e+03  2.8453050574298891e+03  2.8437492356169410e+03  2.8257233209989745e+03  2.8197137352333998e+03  2.9417598986222356e+03  3.0455019510728621e+03  3.0045694338401677e+03  3.4507793146071344e+03  3.2617177382430432e+03  2.7647955036608960e+03  2.4971520129751725e+03  2.6160339596841150e+03  2.9841719372232542e+03  3.1636816193510308e+03  2.3951738822376310e+03  1.7968798806993962e+03  3.9971210206693831e+03  5.3322334531826864e+03  1.6092246730857819e+03  2.2459022392971233e+03  2.7218873215745980e+03  2.8593223037611010e+03  2.3530456045040482e+03  1.6887864802778556e+03  2.7601019198858075e+03  3.1565041903758324e+03  2.2616787172217719e+03  1.8854685542344669e+03  1.5267764592122687e+03  1.6739996850463272e+03  2.0938653993812804e+03  2.4789873976389717e+03  -2.8801940709962178e+03  -2.0431610247224598e+03  -1.6888330388941702e+03  -2.3874316838320201e+03  -4.6293177476509136e+03  -2.5173994620811654e+03  -2.8031494053074721e+03  -3.1913640853057655e+03  -4.3818050186939208e+03  -5.2631023791405632e+03  -3.7083975314117693e+03  -3.9034555735863009e+03  -4.2703658189224307e+03  -4.4564778664577043e+03  -4.5392729558724359e+03  -4.7423412247064671e+03  -4.4249142570130971e+03  -4.3587729814022032e+03  -4.0468405092056773e+03  -3.8313616989923626e+03  2.6695578723027475e+03  3.0044055307445410e+03  2.2820687754430742e+03  1.5530558503579002e+03  1.2502793200112126e+03  8.9966314831679915e+02  6.3935097845213988e+02  4.5940415893531303e+02  3.0560245852207481e+02  -2.7397899912477675e+02  -2.2013931841145172e+03  -1.9793085199668335e+03  -1.9902007800969598e+03  -1.9863762512770829e+03  -1.9865885485432796e+03  -1.9870210002462300e+03  -1.9881870201701288e+03  -1.8768208815973483e+03  -1.7604237376265548e+03  -1.7240267896717303e+03  -2.6439705715839932e+03  -3.3754130774474379e+03  -4.3412461695587108e+03  -4.3384402547403506e+03  -4.2701180873548237e+03  -4.2759728135376135e+03  -4.3029338393496937e+03  -4.3086322659257930e+03  -4.3155826602839843e+03  -4.6744820337009514e+03  -3.6313906752378566e+03  -8.4748999715597495e+02  -5.1876060457388655e+02  -2.7216049286176993e+01  3.9624945255346063e+02  2.8024005742672193e+02  2.7680746146479379e+02  6.9403464385016571e+02  1.5743878988951756e+03  1.6554237539013643e+03  2.1956797167376267e+03  2.5782477211240330e+03  2.3393247791259437e+03  3.4102813000854153e+03  1.7796126230170644e+03  6.0908344744904241e+02  4.1698626967749524e+03  6.2259427107895563e+03  6.4514719147632950e+03  6.5324198025747955e+03  6.3953146370202903e+03  5.8152253166296950e+03  5.7264525910783177e+03  5.7239890648282908e+03  5.7248103153747652e+03  5.7295618772498819e+03  5.7299853704866346e+03  5.6752868533570154e+03  2.4497983634461452e+03  1.5247510535773379e+03  1.4658415371827480e+03  1.4576801989008841e+03  1.2078865146856247e+03  9.9131766219968517e+02  1.0074383654528087e+03  1.0195320779947538e+03  1.2395844996644717e+03  1.2213478156368642e+03  1.3891981058743645e+03  1.8101893758752813e+03  1.9810792564734370e+03  1.9219272929561037e+03  2.3139899591774833e+03  2.7634881683441308e+03  2.7085660282119734e+03  2.6264580535534951e+03  2.9687050096143421e+03  3.4747786181634483e+03  3.6992927149769066e+03  3.6784937849790540e+03  6.3795514278913688e+03  6.5116538123618429e+03  6.4463515869438206e+03  6.4318308467052611e+03  6.8117032969825432e+03  6.8974548634344383e+03  6.7375031736555275e+03  6.6005902954259545e+03  6.4320870548939756e+03  6.4802690195535606e+03  5.9147136964151077e+03  6.4394549961325929e+03  6.2643121657365637e+03  5.7399591441567209e+03  6.3867703360718133e+03  6.4360645372316148e+03  6.4193655989163271e+03  6.4406796283554049e+03  6.5255125499478081e+03  6.4738525367164766e+03  6.2585316623136614e+03  6.2171445455218991e+03  6.0614117639201313e+03  5.7931118819406511e+03  5.7662523589727271e+03  5.7336484887411489e+03  5.8372060329370379e+03  6.3652499433855110e+03  6.5262098215136239e+03  6.6252478606415971e+03  6.3431022083422513e+03  5.9184020563239283e+03  6.2209968112675524e+03  6.7326033840055934e+03  6.4355463521191532e+03  6.4636026342100768e+03  6.3378419515768683e+03  6.2144264718169461e+03  5.8826256396201679e+03  6.3278339801384773e+03  6.7658270383756335e+03  6.4708064296143757e+03  5.6928654020022277e+03  5.5399612903969837e+03  5.6581947033363276e+03  5.8238445013156042e+03  5.8138979573422530e+03  5.6546583322822107e+03  5.6933466222685747e+03  5.7787251547669875e+03  5.8431439137144398e+03  5.8078153500000490e+03  5.6056032847266551e+03  5.4974830312382992e+03  5.4756014108210848e+03  5.3235403745295125e+03  5.3542898096683457e+03  4.0185480627404377e+03  3.4253115616785512e+03  3.4086875323917943e+03  3.1718725883817092e+03  2.9503287036545926e+03  2.8874318056576567e+03  2.7500860541065663e+03  1.6074904353706072e+03  1.1496387879954450e+03  1.1381504127979965e+03  1.1270822376157241e+03  1.2077573518350584e+03  1.3075373482599991e+03  1.3187715633648761e+03  1.3142217163748819e+03  1.3137372713346524e+03  1.3148480328868397e+03  1.2990099593886923e+03  1.4144277182524911e+03  2.6188736231490211e+03  5.6914339676496438e+03  5.4716016833746762e+03  6.3470805963231496e+03  5.8099541402499162e+03  5.0342784346292383e+03  6.5400982411863706e+03  6.4933357982423540e+03  6.3812978444718528e+03  6.3272849585676340e+03  6.1444992902725535e+03  4.8459105005824904e+03  4.6663624773139072e+03  4.3688409804813327e+03  4.3950568931293947e+03  4.2261812988365700e+03  3.5020335188011945e+03  2.9430575109853930e+03  2.9726960269677611e+03  3.2700268937991441e+03  4.0850404084240745e+03  4.7822386550432520e+03  4.6623896377527162e+03  4.6423947247867145e+03  4.4954384651930222e+03  4.5671714078271634e+03  5.6113653129400691e+03  6.1386099212008821e+03  6.3363015074311597e+03  6.5931250891999280e+03  4.5313510060723484e+03  4.8491617010519694e+03  3.9930531646944305e+03  3.1213191837573763e+03  3.0180873092483489e+03  4.0656787368280911e+03  5.0826731718508836e+03  5.6071614751005709e+03  4.5555264282473718e+03  3.3206990813358498e+03  4.2750103884991058e+03  4.6229166948292650e+03  3.5987531506902246e+03  3.3089018473587703e+03  2.9320980939927913e+03  3.2816283012261265e+03  3.4492347447989468e+03  3.5089530861000344e+03  1.0103433571246979e+03  1.1468563175373963e+03  1.2658688615867079e+03  1.8630464506761371e+03  2.8007682911828401e+03  2.6547503788779122e+03  2.5140293000700649e+03  2.2195506793768908e+02  -1.5032106262416400e+02  2.1645552379285462e+02  7.3134595129653303e+02  8.8337382540549731e+02  1.7756028374216901e+03  1.4932257192519357e+03  1.4306735015267620e+03  1.0351185083698792e+03  5.8393690271845878e+02  2.3362865104744233e+02  2.4268185036431311e+02  -1.1318102796925240e+02  -2.1672454918641961e+02  1.7686001819716074e+02  -1.6282429413824411e+02  6.1352892464857291e+02  -5.9817266442040579e+02  -1.2256328071552711e+02  -2.1525034646596082e+03  -3.5104063794471190e+03  -4.1293671377336905e+03  -3.5391867178646853e+03  -3.0862467397943865e+03  -2.3006711040666787e+03  -3.9809114556788318e+03  -4.0513801872386716e+03  -4.4672254369523798e+03  -4.6377706516549151e+03  -4.6570140159992052e+03  -1.4674087879406227e+03  -2.7641593584416837e+03  -7.7116429082348868e+03  -4.3042285377449580e+03  -4.2512235229246317e+03  -4.2983134949582827e+03  -4.5864713881769458e+03  -5.1096975123309257e+03  -5.2018761397653752e+03  -4.8476925438225262e+03  -2.6523785644633508e+03  -4.3830466321967742e+03  -5.6364802916957769e+03  -2.6691435485939182e+03  -4.3874510236568231e+03  -7.0233054841751864e+03  -9.2444470103669992e+03  -4.2307936044994403e+03  -3.7207472436573203e+03  -4.6629678203922258e+03  -4.9849379190614045e+03  -4.5620204560731208e+03  -4.1962078361034237e+03  -4.5734088481710432e+03  -5.6284525176186853e+03  -2.9045181943882453e+03  -1.8330523143715998e+03  -7.8989137611697461e+03  -7.4035816673131130e+03  -4.9237462187871870e+03  -4.1249688642288165e+03  -4.5044469137573760e+03  -4.9258037185274497e+03  -5.6008014742140140e+03  -5.9544932013417902e+03  -6.1346529230037477e+03  -5.0730552516381649e+03  -4.5891819988264151e+03  -4.4462306793674370e+03  -5.0454694454089667e+03  -5.0887012563229264e+03  -5.0494912953674857e+03  -5.0488734362599280e+03  -5.2675620162970235e+03  -4.7692033353194611e+03  -5.0901718978277613e+03  -4.8607027300643940e+03  -4.9514916712712629e+03  -5.7136217381596844e+03  -6.2913361015922874e+03  -5.4208702076230275e+03  -5.1576704438239176e+03  -4.9023830059130505e+03  -5.3598758126624216e+03  -5.3475779374161066e+03  -5.3652598279439480e+03  -5.8678588589022875e+03  -5.9813120534654636e+03  -5.8607308167438341e+03  -4.1845909608683851e+03  -2.8533891727074483e+03  -2.3685534942225436e+03  -4.4176636114767434e+03  -5.2357650755629493e+03  -5.3906564212207068e+03  -5.6013604909259693e+03  -5.7661518939146508e+03  -5.5334634556285018e+03  -5.5587605424024841e+03  -4.2896402243534403e+03  -3.4467550120380797e+03  -4.0773336552768419e+03  -4.1779159523502021e+03  -2.8158963081723318e+03  -2.4322652691393819e+03  -2.1329697858958671e+03  -2.0959655981817209e+03  -2.2805590901818491e+03  -2.7526508843364222e+03  -3.0325644905465065e+03  -3.2115134697738749e+03  -3.4329433424584731e+03  -3.5663256909001220e+03  -4.0302289210705617e+03  -4.4786089669733810e+03  -5.2620718926934996e+03  -4.2247443361857004e+03  1.9487232297800379e+03  1.8393230599120227e+03  1.0746567014022705e+03  2.7610432050487486e+02  -1.3582534004165521e+02  -9.0226191144265172e+01  5.7490003552410400e+01  -1.2278478148974693e+03  -2.7109698796447647e+03  -2.6201235313492507e+03  -2.5809812142450010e+03  -2.5871154272289573e+03  -3.0681283350524595e+03  -2.4958529738839561e+03  -2.2893103890531006e+03  -2.2639153953098721e+03  -2.2037679517800393e+03  3.2740368218507359e+02  5.9765740384541255e+02  7.0510857703845761e+02  1.5343752888693084e+03  2.0446299190265140e+03  -3.0395030273292437e+03  -2.5734627762105197e+03  -2.5374594952236666e+03  -3.0876426679835399e+03  -3.5237191917906480e+03  -3.3077227812466308e+03  -6.0355966125349560e+03  -5.9447453227430260e+03  -6.0013504897326002e+03  -6.3942626298354908e+03  -5.0472729142085100e+03  -5.0022858932983145e+03  -5.0093385286188095e+03  -2.6988035996171830e+03  -7.4596573476731764e+03  -7.0327191891603061e+03  -6.0848096044109407e+03  -6.0217025966004430e+03  -5.9739544418016758e+03  -5.9686610323114019e+03  -6.1343402865363933e+03  -5.9403113140955847e+03  -5.7747018218739286e+03  -5.6649557700616297e+03  -5.2351391483363795e+03  -5.0507423523379739e+03  -5.8370828636276819e+03  -5.3197204271682422e+03  -4.9475989996950220e+03  -5.6464837205625290e+03  -6.2848304514408619e+03  -6.0129824232168721e+03  -5.3735610601929448e+03  -4.2905862452962410e+03  -3.5382327528583396e+03  -3.3335193508641541e+03  -3.1942524420017903e+03  -3.4008283885370615e+03  -4.2507365580666983e+03  -5.1893067945580151e+03  -1.0072717081939238e+04  -9.3655056010097778e+03  -9.2238918152603856e+03  -9.7296145752484863e+03  -4.5471953072636852e+03  -4.5087538691892441e+03  -7.2000872912072437e+03  -1.0245582112729086e+04  -1.0502339394754285e+04  -8.6181636558000155e+03  -8.1963016059656675e+03  -5.5617655631304697e+03  -1.0455635263003083e+04  -1.0034234318726469e+04  -1.1098842759725643e+04  -1.1897487816939543e+04  -3.3888379206837279e+04  -3.3348367133521715e+04  -2.8785816886169268e+04  -2.7555585692672150e+04  -3.0991319042115985e+04  -3.2907855460529790e+04  -1.1912819299657176e+04  -8.4106815062647620e+03  -9.9141586440917381e+03  -1.0583614632418905e+04  -1.0397852774932488e+04  -1.3982593268283941e+04  -1.7894742969256284e+04  -1.6751688945265822e+04  -1.7044160196806617e+04  -1.6690683832744759e+04  -5.8129658928797826e+03  -5.4606183001084373e+03  -5.3582116405940033e+03  -5.1929375858071080e+03  -4.3265560475835273e+03  -3.9583811783891119e+03  -3.4996163152849595e+03  -3.2685481355348229e+03  -3.2808437484574742e+03  -3.2812352209255682e+03  -3.2813785034509788e+03  -3.2813200022719047e+03  -3.2813110057234799e+03  -3.2812947636400290e+03  -3.2809095131179874e+03  -3.2833583281423989e+03  -3.2856788595934281e+03  -3.2243636217321941e+03  -3.2609862080503117e+03  -3.4659612705695158e+03  -3.6159714602954273e+03  -3.4992351746757154e+03  -3.1430807176253056e+03  -6.6111429346870973e+03  -8.3730153211542220e+03  -1.1230471659682238e+04  -1.4082180091665427e+04  -1.6914398880888577e+04  -1.9885718525812597e+04  -2.3128361714220373e+04  -2.5178698325830966e+04  -2.5179369964132835e+04  -2.5172274927361654e+04  -2.5150144304597467e+04  -2.5184538611615448e+04  -2.5207332184186682e+04  -2.5201571708134146e+04  -2.5202523561815298e+04  -2.5192620425130564e+04  -2.5205129989291810e+04  -2.5193671722259649e+04  -2.5193611850107176e+04  -2.5193654628356584e+04  -2.5186633526599289e+04  -2.5263876337830214e+04  -2.5342254203888962e+04  -2.5279429541889946e+04  -2.5276033845355367e+04  -2.5349242634426049e+04  -2.4094799030651491e+04  -2.1765721910876258e+04  -1.8841734846223888e+04  -1.4826240884513491e+04  -1.1819904088778419e+04  -1.1481429969407674e+04  -9.1634416759271935e+03  -8.6405915491489559e+03  -8.6450328394241733e+03  -8.4904716236171189e+03  -7.3302338213976891e+03  -7.1321412581619206e+03  -7.1353209995327434e+03  -7.1342913060404981e+03  -7.1458839826371632e+03  -7.1463118319286641e+03  -7.1484744115770873e+03  -7.1462215706048455e+03  -7.1578403439802751e+03  -7.2117600077095813e+03  -7.1686246105012606e+03  -6.4537997203850073e+03  -6.5224754328859362e+03  -6.5310168675964796e+03  -6.5239372739854743e+03  -6.5144361937466883e+03  -6.5731098133199584e+03  -6.3542117113562526e+03  -6.3095413163515295e+03  -2.5324816236092029e+04  -2.2889606357451768e+04  -2.3654701724968705e+04  -2.5046522837878285e+04  -1.0614602535865055e+04  -1.0340837485894754e+04  -9.8628006010980698e+03  -9.6938577111278100e+03  -9.6955347374611156e+03  -1.0376823607546728e+04  -1.0736551509193081e+04  -1.0632308418549195e+04  -1.1580536200522720e+04  -1.2291396213540327e+04  -1.2729195173420716e+04  -1.2572332748197094e+04  -1.1664210049273814e+04  -1.1188885101124351e+04  -1.1260724942115616e+04  -1.1279985671498314e+04  -1.1294836820082450e+04  -1.1322660499302308e+04  -1.1640653158584844e+04  -1.1305952660158970e+04  -1.0976024266504486e+04  -1.0625544327621416e+04  -1.0813487354436269e+04  -1.0385317862770507e+04  -9.7959290573671133e+03  -9.6542143095328011e+03  -9.7225339911421033e+03  -1.0686657037357898e+04  -9.7982858055234974e+03  -9.3222919399722196e+03  -9.1316583571885967e+03  -8.92785