<?xml version="1.0"?>
<VTKFile type="UnstructuredGrid"  version="0.1"  >
<UnstructuredGrid>
<Piece  NumberOfPoints="22441" NumberOfCells="40032">
<Points>
<DataArray  type="Float64"  NumberOfComponents="3"  format="ascii">0 1 0  0 0 0  1 0 0  1 1 0  0.06421852509768232 0.9682539682539681 0  0.06964722026641869 0.9523809523809523 0  0.06349206349206349 0.9444332889252413 0  0.05687437872600694 0.9365079365079365 0  0.06324598462700388 0.9206349206349206 0  0.04809141400037913 0.9047619047619047 0  0.04761904761904762 0.9043917319710525 0  0.03174603174603174 0.8951568807382518 0  0.02626579862768711 0.8888888888888888 0  0.01587301587301587 0.8841239889064104 0  0.01585482745494342 0.8888888888888888 0  0.01581893619404356 0.9047619047619047 0  0.01585797515490196 0.9206349206349206 0  0.01585710678041044 0.9365079365079365 0  0.01587301587301587 0.9452393985415739 0  0.03174603174603174 0.9510920971236986 0  0.03319932107567881 0.9523809523809523 0  0.03174603174603174 0.9529280788575529 0  0.01587301587301587 0.9592907486474118 0  0.0158561421119106 0.9682539682539681 0  0.01586166056542051 0.9841269841269841 0  0.01587301587301587 0.9841383286069326 0  0.03174603174603174 0.9841558497090436 0  0.04381976050193807 0.9841269841269841 0  0.04761904761904762 0.9787496330914822 0  0.06123343545236704 0.9841269841269841 0  0.06349206349206349 0.9841284961898851 0  0.06394380773597563 0.9841269841269841 0  0.1111111111111111 0.8839111299889008 0  0.1267078528446891 0.873015873015873 0  0.1111111111111111 0.8643402957845827 0  0.1054468672566038 0.8571428571428571 0  0.1025543992009606 0.8412698412698412 0  0.1111111111111111 0.8375113034938789 0  0.1202944887203824 0.8253968253968254 0  0.1163137814134395 0.8095238095238095 0  0.1111111111111111 0.7994772444392872 0  0.1037094526057736 0.8095238095238095 0  0.09523809523809523 0.8219533290740516 0  0.08389794206622389 0.8095238095238095 0  0.09523809523809523 0.8008610955249955 0  0.1051045647947118 0.7936507936507936 0  0.1111111111111111 0.7889627336439829 0  0.119554437284113 0.7777777777777777 0  0.115381539570102 0.7619047619047619 0  0.1111111111111111 0.7505524172798661 0  0.09523809523809523 0.7540246756097889 0  0.07936507936507936 0.7501691636371853 0  0.07233582749596816 0.746031746031746 0  0.06359868335695776 0.7301587301587301 0  0.06349206349206349 0.7300341201597805 0  0.06306536802068405 0.7301587301587301 0  0.05111315791799912 0.746031746031746 0  0.04761904761904762 0.7561105396112254 0  0.03936422577757931 0.746031746031746 0  0.03174603174603174 0.7445621827972388 0  0.0256686348092368 0.746031746031746 0  0.01751153031241491 0.7619047619047619 0  0.02423003498745378 0.7777777777777777 0  0.01587301587301587 0.791572449458803 0  0.01586815347458532 0.7936507936507936 0  0.01587301587301587 0.7975864549051256 0  0.03174603174603174 0.806569539427846 0  0.03419010862590954 0.8095238095238095 0  0.04761904761904762 0.8212148350908465 0  0.05164178424779017 0.8253968253968254 0  0.05098590322763307 0.8412698412698412 0  0.06349206349206349 0.8501512691627024 0  0.07936507936507936 0.8459945797063819 0  0.08748270236801868 0.8571428571428571 0  0.0946999403178975 0.873015873015873 0  0.09160261914906997 0.8888888888888888 0  0.08226227061841325 0.9047619047619047 0  0.07936507936507936 0.9109687240231008 0  0.06453003888607434 0.9206349206349206 0  0.07936507936507936 0.9271721066959553 0  0.09333954571232141 0.9365079365079365 0  0.09523809523809523 0.9375840785624352 0  0.09592389405316522 0.9365079365079365 0  0.1111111111111111 0.9227858802876768 0  0.1210876312029152 0.9206349206349206 0  0.1218791581300059 0.9047619047619047 0  0.1111111111111111 0.891083804731581 0  0.104321466541762 0.8888888888888888 0  0.126984126984127 0.8726537157537042 0  0.1312938691314055 0.8571428571428571 0  0.126984126984127 0.8513061136153193 0  0.1194022239154673 0.8571428571428571 0  0.1428571428571428 0.7979665723437739 0  0.1574022234189074 0.7936507936507936 0  0.1472669960667243 0.7777777777777777 0  0.1428571428571428 0.7722828421936114 0  0.1361556965637997 0.7777777777777777 0  0.126984126984127 0.7910133268059 0  0.1223022685692725 0.7936507936507936 0  0.126984126984127 0.7953299048383278 0  0.1796211640104055 0.6984126984126984 0  0.1812199620440106 0.6825396825396826 0  0.1771039303899643 0.6666666666666666 0  0.1746031746031746 0.6636571870597396 0  0.1587301587301587 0.6530245747988206 0  0.1516364882909463 0.6666666666666666 0  0.1428571428571428 0.6752536117193281 0  0.1271024699901225 0.6825396825396826 0  0.1428571428571428 0.6946179519557442 0  0.158614076089896 0.6984126984126984 0  0.1587301587301587 0.6995982763501398 0  0.1746031746031746 0.7018599442254767 0  0.2698412698412698 0.6275151754038434 0  0.2824293890369667 0.6190476190476191 0  0.2793892899251419 0.6031746031746031 0  0.2698412698412698 0.5917380093253651 0  0.2633208090966649 0.5873015873015872 0  0.253968253968254 0.5861380914685455 0  0.2380952380952381 0.5867944152217239 0  0.2246719809269859 0.5714285714285714 0  0.2222222222222222 0.5665033832349908 0  0.2063492063492063 0.562368131395275 0  0.1956392100679505 0.5555555555555556 0  0.2057249340123058 0.5396825396825397 0  0.1904761904761905 0.5323013040563001 0  0.1746068128302253 0.5396825396825397 0  0.1746031746031746 0.5396892108308448 0  0.1716680317848936 0.5555555555555556 0  0.1667035260114133 0.5714285714285714 0  0.1746031746031746 0.5855121988465476 0  0.1755155080163235 0.5873015873015872 0  0.1746031746031746 0.5882402223109868 0  0.1737170003479516 0.5873015873015872 0  0.1587301587301587 0.576501670268878 0  0.1504967840800143 0.5873015873015872 0  0.1528947068464866 0.6031746031746031 0  0.1587301587301587 0.6126287131729804 0  0.1703847009274189 0.6190476190476191 0  0.1587301587301587 0.6245130824653231 0  0.1545300750362012 0.6349206349206349 0  0.1587301587301587 0.6449994676727128 0  0.1746031746031746 0.6432955440156103 0  0.1896209718450516 0.6349206349206349 0  0.1904761904761905 0.6307627300638411 0  0.1988924898062247 0.6190476190476191 0  0.2063492063492063 0.612992330013897 0  0.2108673011477152 0.6190476190476191 0  0.2222222222222222 0.6231459438470834 0  0.232436755700484 0.6190476190476191 0  0.2380952380952381 0.6142126056951785 0  0.253968253968254 0.6130214894015541 0  0.2616066344557758 0.6190476190476191 0  0.2857142857142857 0.4397308313271667 0  0.2993154050698242 0.4285714285714285 0  0.2857142857142857 0.4196805047798435 0  0.2731151938185038 0.4285714285714285 0  0.3836609207662339 0.2857142857142857 0  0.3902203003216285 0.2698412698412698 0  0.3809523809523809 0.2588681146152163 0  0.373644838100752 0.253968253968254 0  0.3650793650793651 0.2436120457240887 0  0.3492063492063492 0.2524517582553757 0  0.339330798266541 0.2380952380952381 0  0.3348671181008898 0.2222222222222222 0  0.3333333333333333 0.2199533970922178 0  0.325697136247348 0.2222222222222222 0  0.3174603174603174 0.2264720548902616 0  0.3146428184758807 0.2380952380952381 0  0.3015873015873016 0.2482670261989105 0  0.2958975237602495 0.253968253968254 0  0.2980201750916553 0.2698412698412698 0  0.3015873015873016 0.2814270650166871 0  0.3156816183229603 0.2698412698412698 0  0.3174603174603174 0.2684655790760218 0  0.3190614969574576 0.2698412698412698 0  0.3333333333333333 0.2839157002698057 0  0.3492063492063492 0.2736140514828313 0  0.3650793650793651 0.2818059147575788 0  0.3760045117744532 0.2857142857142857 0  0.3809523809523809 0.2876999586978841 0  0.4603174603174603 0.146915347730341 0  0.4612759376221224 0.1428571428571428 0  0.4603174603174603 0.1410863290019336 0  0.4444444444444444 0.1352123607946744 0  0.4285714285714285 0.1389978260592476 0  0.4255581202029225 0.126984126984127 0  0.4126984126984127 0.1141700520023271 0  0.4068754507163788 0.1111111111111111 0  0.3968253968253968 0.09930558979080928 0  0.3809523809523809 0.09575940935764141 0  0.3794988739448027 0.09523809523809523 0  0.3658515228205535 0.07936507936507936 0  0.3650793650793651 0.07723500257532259 0  0.3622162548025775 0.07936507936507936 0  0.3521924399349237 0.09523809523809523 0  0.361495961104406 0.1111111111111111 0  0.35779885037157 0.126984126984127 0  0.3650793650793651 0.1368850790871635 0  0.3665986151302906 0.1428571428571428 0  0.3650793650793651 0.1522497963386735 0  0.3492063492063492 0.1485672075983815 0  0.334188452321426 0.1587301587301587 0  0.3399731847558914 0.1746031746031746 0  0.3450202602924747 0.1904761904761905 0  0.3455316093541224 0.2063492063492063 0  0.3492063492063492 0.208919480987379 0  0.3580112647919073 0.2222222222222222 0  0.3650793650793651 0.2340421477159691 0  0.3809523809523809 0.2242589166914388 0  0.3932947765624943 0.2222222222222222 0  0.3809523809523809 0.2192563298065739 0  0.3703257590013715 0.2063492063492063 0  0.3809523809523809 0.1935579472561114 0  0.3916408184282182 0.2063492063492063 0  0.3968253968253968 0.2203279346312648 0  0.405980696611446 0.2063492063492063 0  0.4126984126984127 0.2019452825606936 0  0.4187251534850137 0.1904761904761905 0  0.4126984126984127 0.17466699040646 0  0.4126335096229047 0.1746031746031746 0  0.4003944812153047 0.1587301587301587 0  0.4126984126984127 0.1541080758241277 0  0.4232710054209007 0.1587301587301587 0  0.4285714285714285 0.1624650943942817 0  0.4365173970808257 0.1587301587301587 0  0.4444444444444444 0.1503057664271795 0  0.4603174603174603 0.09152342640697261 0  0.471160868538769 0.07936507936507936 0  0.4629992698446178 0.06349206349206349 0  0.4603174603174603 0.06190345795643597 0  0.4587021409565548 0.06349206349206349 0  0.4478244686818235 0.07936507936507936 0  0.4603174603174603 0.03756364836251632 0  0.4741809652117253 0.03174603174603174 0  0.4603174603174603 0.02676469923583802 0  0.4510047108918527 0.03174603174603174 0  0.4444444444444444 0.1117138914097975 0  0.4446058818246006 0.1111111111111111 0  0.4444444444444444 0.1108760223974125 0  0.4429955617176202 0.1111111111111111 0  0.4285714285714285 0.0831102392987039 0
[...]
<PointData  Vectors="f_30-0"> 
<DataArray  type="Float64"  Name="f_30-0"  NumberOfComponents="3" format="ascii">0.0000000000000000e+00 0.0000000000000000e+00 0.0000000000000000e+00  0.0000000000000000e+00 0.0000000000000000e+00 0.0000000000000000e+00  0.0000000000000000e+00 0.0000000000000000e+00 0.0000000000000000e+00  0.0000000000000000e+00 0.0000000000000000e+00 0.0000000000000000e+00  0.0000000000000000e+00 0.0000000000000000e+00 0.0000000000000000e+00  0.0000000000000000e+00 0.0000000000000000e+00 0.0000000000000000e+00  0.0000000000000000e+00 0.0000000000000000e+00 0.0000000000000000e+00  0.0000000000000000e+00 0.0000000000000000e+00 0.0000000000000000e+00  0.0000000000000000e+00 0.0000000000000000e+00 0.0000000000000000e+00  0.0000000000000000e+00 0.0000000000000000e+00 0.0000000000000000e+00  0.0000000000000000e+00 0.0000000000000000e+00 0.0000000000000000e+00  0.0000000000000000e+00 0.0000000000000000e+00 0.0000000000000000e+00  0.0000000000000000e+00 0.0000000000000000e+00 0.0000000000000000e+00  0.0000000000000000e+00 0.0000000000000000e+00 0.0000000000000000e+00  0.0000000000000000e+00 0.0000000000000000e+00 0.0000000000000000e+00  0.0000000000000000e+00 0.0000000000000000e+00 0.0000000000000000e+00  0.0000000000000000e+00 0.0000000000000000e+00 0.0000000000000000e+00  0.0000000000000000e+00 0.0000000000000000e+00 0.0000000000000000e+00  0.0000000000000000e+00 0.0000000000000000e+00 0.0000000000000000e+00  0.0000000000000000e+00 0.0000000000000000e+00 0.0000000000000000e+00  0.0000000000000000e+00 0.0000000000000000e+00 0.0000000000000000e+00  0.0000000000000000e+00 0.0000000000000000e+00 0.0000000000000000e+00  0.0000000000000000e+00 0.0000000000000000e+00 0.0000000000000000e+00  0.0000000000000000e+00 0.0000000000000000e+00 0.0000000000000000e+00  0.0000000000000000e+00 0.0000000000000000e+00 0.0000000000000000e+00  0.0000000000000000e+00 0.0000000000000000e+00 0.0000000000000000e+00  0.0000000000000000e+00 0.0000000000000000e+00 0.0000000000000000e+00  0.0000000000000000e+00 0.0000000000000000e+00 0.0000000000000000e+00  0.0000000000000000e+00 0.0000000000000000e+00 0.0000000000000000e+00  0.0000000000000000e+00 0.0000000000000000e+00 0.0000000000000000e+00  0.0000000000000000e+00 0.0000000000000000e+00 0.0000000000000000e+00  0.0000000000000000e+00 0.0000000000000000e+00 0.0000000000000000e+00  0.0000000000000000e+00 0.0000000000000000e+00 0.0000000000000000e+00  0.0000000000000000e+00 0.0000000000000000e+00 0.0000000000000000e+00  0.0000000000000000e+00 0.0000000000000000e+00 0.0000000000000000e+00  0.0000000000000000e+00 0.0000000000000000e+00 0.0000000000000000e+00  0.0000000000000000e+00 0.0000000000000000e+00 0.0000000000000000e+00  0.0000000000000000e+00 0.0000000000000000e+00 0.0000000000000000e+00  0.0000000000000000e+00 0.0000000000000000e+00 0.0000000000000000e+00  0.0000000000000000e+00 0.0000000000000000e+00 0.0000000000000000e+00  0.0000000000000000e+00 0.0000000000000000e+00 0.0000000000000000e+00  0.0000000000000000e+00 0.0000000000000000e+00 0.0000000000000000e+00  0.0000000000000000e+00 0.0000000000000000e+00 0.0000000000000000e+00  0.0000000000000000e+00 0.0000000000000000e+00 0.0000000000000000e+00  0.0000000000000000e+00 0.0000000000000000e+00 0.0000000000000000e+00  0.0000000000000000e+00 0.0000000000000000e+00 0.0000000000000000e+00  0.0000000000000000e+00 0.0000000000000000e+00 0.0000000000000000e+00  0.0000000000000000e+00 0.0000000000000000e+00 0.0000000000000000e+00  0.0000000000000000e+00 0.0000000000000000e+00 0.0000000000000000e+00  0.0000000000000000e+00 0.0000000000000000e+00 0.0000000000000000e+00  0.0000000000000000e+00 0.0000000000000000e+00 0.0000000000000000e+00  0.0000000000000000e+00 0.0000000000000000e+00 0.0000000000000000e+00  0.0000000000000000e+00 0.0000000000000000e+00 0.0000000000000000e+00  0.0000000000000000e+00 0.0000000000000000e+00 0.0000000000000000e+00  0.0000000000000000e+00 0.0000000000000000e+00 0.0000000000000000e+00  0.0000000000000000e+00 0.0000000000000000e+00 0.0000000000000000e+00  0.0000000000000000e+00 0.0000000000000000e+00 0.0000000000000000e+00  0.0000000000000000e+00 0.0000000000000000e+00 0.0000000000000000e+00  0.0000000000000000e+00 0.0000000000000000e+00 0.0000000000000000e+00  0.0000000000000000e+00 0.0000000000000000e+00 0.0000000000000000e+00  0.0000000000000000e+00 0.0000000000000000e+00 0.0000000000000000e+00  0.0000000000000000e+00 0.0000000000000000e+00 0.0000000000000000e+00  0.0000000000000000e+00 0.0000000000000000e+00 0.0000000000000000e+00  0.0000000000000000e+00 0.0000000000000000e+00 0.0000000000000000e+00  0.0000000000000000e+00 0.0000000000000000e+00 0.0000000000000000e+00  0.0000000000000000e+00 0.0000000000000000e+00 0.0000000000000000e+00  0.0000000000000000e+00 0.0000000000000000e+00 0.0000000000000000e+00  0.0000000000000000e+00 0.0000000000000000e+00 0.0000000000000000e+00  0.0000000000000000e+00 0.0000000000000000e+00 0.0000000000000000e+00  0.0000000000000000e+00 0.0000000000000000e+00 0.0000000000000000e+00  0.0000000000000000e+00 0.0000000000000000e+00 0.0000000000000000e+00  0.0000000000000000e+00 0.0000000000000000e+00 0.0000000000000000e+00  0.0000000000000000e+00 0.0000000000000000e+00 0.0000000000000000e+00  0.0000000000000000e+00 0.0000000000000000e+00 0.0000000000000000e+00  0.0000000000000000e+00 0.0000000000000000e+00 0.0000000000000000e+00  0.0000000000000000e+00 0.0000000000000000e+00 0.0000000000000000e+00  0.0000000000000000e+00 0.0000000000000000e+00 0.0000000000000000e+00  0.0000000000000000e+00 0.0000000000000000e+00 0.0000000000000000e+00  0.0000000000000000e+00 0.0000000000000000e+00 0.0000000000000000e+00  0.0000000000000000e+00 0.0000000000000000e+00 0.0000000000000000e+00  0.0000000000000000e+00 0.0000000000000000e+00 0.0000000000000000e+00  0.0000000000000000e+00 0.0000000000000000e+00 0.0000000000000000e+00  0.0000000000000000e+00 0.0000000000000000e+00 0.0000000000000000e+00  0.0000000000000000e+00 0.0000000000000000e+00 0.0000000000000000e+00  0.0000000000000000e+00 0.0000000000000000e+00 0.0000000000000000e+00  0.0000000000000000e+00 0.0000000000000000e+00 0.0000000000000000e+00  0.0000000000000000e+00 0.0000000000000000e+00 0.0000000000000000e+00  0.0000000000000000e+00 0.0000000000000000e+00 0.0000000000000000e+00  0.0000000000000000e+00 0.0000000000000000e+00 0.0000000000000000e+00  0.0000000000000000e+00 0.0000000000000000e+00 0.0000000000000000e+00  0.0000000000000000e+00 0.0000000000000000e+00 0.0000000000000000e+00  0.0000000000000000e+00 0.0000000000000000e+00 0.0000000000000000e+00  0.0000000000000000e+00 0.0000000000000000e+00 0.0000000000000000e+00  0.0000000000000000e+00 0.0000000000000000e+00 0.0000000000000000e+00  0.0000000000000000e+00 0.0000000000000000e+00 0.0000000000000000e+00  0.0000000000000000e+00 0.0000000000000000e+00 0.0000000000000000e+00  0.0000000000000000e+00 0.0000000000000000e+00 0.0000000000000000e+00  0.0000000000000000e+00 0.0000000000000000e+00 0.0000000000000000e+00  0.0000000000000000e+00 0.0000000000000000e+00 0.0000000000000000e+00  0.0000000000000000e+00 0.0000000000000000e+00 0.0000000000000000e+00  0.0000000000000000e+00 0.0000000000000000e+00 0.0000000000000000e+00  0.0000000000000000e+00 0.0000000000000000e+00 0.0000000000000000e+00  0.0000000000000000e+00 0.0000000000000000e+00 0.0000000000000000e+00  0.0000000000000000e+00 0.0000000000000000e+00 0.0000000000000000e+00  0.0000000000000000e+00 0.0000000000000000e+00 0.0000000000000000e+00  0.0000000000000000e+00 0.0000000000000000e+00 0.0000000000000000e+00  0.0000000000000000e+00 0.0000000000000000e+00 0.0000000000000000e+00  0.0000000000000000e+00 0.0000000000000000e+00 0.0000000000000000e+00  0.0000000000000000e+00 0.0000000000000000e+00 0.0000000000000000e+00  0.0000000000000000e+00 0.0000000000000000e+00 0.0000000000000000e+00  0.0000000000000000e+00 0.0000000000000000e+00 0.0000000000000000e+00  0.0000000000000000e+00 0.0000000000000000e+00 0.0000000000000000e+00  0.0000000000000000e+00 0.0000000000000000e+00 0.0000000000000000e+00  0.0000000000000000e+00 0.0000000000000000e+00 0.0000000000000000e+00  0.0000000000000000e+00 0.0000000000000000e+00 0.0000000000000000e+00  0.0000000000000000e+00 0.0000000000000000e+00 0.0000000000000000e+00  0.0000000000000000e+00 0.0000000000000000e+00 0.0000000000000000e+00  0.0000000000000000e+00 0.0000000000000000e+00 0.0000000000000000e+00  0.0000000000000000e+00 0.0000000000000000e+00 0.0000000000000000e+00  0.0000000000000000e+00 0.0000000000000000e+00 0.0000000000000000e+00  0.0000000000000000e+00 0.0000000000000000e+00 0.0000000000000000e+00  0.0000000000000000e+00 0.0000000000000000e+00 0.0000000000000000e+00  0.0000000000000000e+00 0.0000000000000000e+00 0.0000000000000000e+00  0.0000000000000000e+00 0.0000000000000000e+00 0.0000000000000000e+00  0.0000000000000000e+00 0.0000000000000000e+00 0.0000000000000000e+00  0.0000000000000000e+00 0.0000000000000000e+00 0.0000000000000000e+00  0.0000000000000000e+00 0.0000000000000000e+00 0.0000000000000000e+00  0.0000000000000000e+00 0.0000000000000000e+00 0.0000000000000000e+00  0.0000000000000000e+00 0.0000000000000000e+00 0.0000000000000000e+00  0.0000000000000000e+00 0.0000000000000000e+00 0.0000000000000000e+00  0.0000000000000000e+00 0.0000000000000000e+00 0.0000000000000000e+00  0.0000000000000000e+00 0.0000000000000000e+00 0.0000000000000000e+00  0.0000000000000000e+00 0.0000000000000000e+00 0.0000000000000000e+00  0.0000000000000000e+00 0.0000000000000000e+00 0.0000000000000000e+00  0.0000000000000000e+00 0.0000000000000000e+00 0.0000000000000000e+00  0.0000000000000000e+00 0.0000000000000000e+00 0.0000000000000000e+00  0.0000000000000000e+00 0.0000000000000000e+00 0.0000000000000000e+00  0.0000000000000000e+00 0.0000000000000000e+00 0.0000000000000000e+00  0.0000000000000000e+00 0.0000000000000000e+00 0.0000000000000000e+00  0.0000000000000000e+00 0.0000000000000000e+00 0.0000000000000000e+00  0.0000000000000000e+00 0.0000000000000000e+00 0.0000000000000000e+00  0.0000000000000000e+00 0.0000000000000000e+00 0.0000000000000000e+00  0.0000000000000000e+00 0.0000000000000000e+00 0.0000000000000000e+00  0.0000000000000000e+00 0.0000000000000000e+00 0.0000000000000000e+00  0.0000000000000000e+00 0.0000000000000000e+00 0.0000000000000000e+00  0.0000000000000000e+00 0.0000000000000000e+00 0.0000000000000000e+00  0.0000000000000000e+00 0.0000000000000000e+00 0.0000000000000000e+00  0.0000000000000000e+00 0.0000000000000000e+00 0.0000000000000000e+00  0.0000000000000000e+00 0.0000000000000000e+00 0.0000000000000000e+00  0.0000000000000000e+00 0.0000000000000000e+00 0.0000000000000000e+00  0.0000000000000000e+00 0.0000000000000000e+00 0.0000000000000000e+00  0.0000000000000000e+00 0.0000000000000000e+00 0.0000000000000000e+00  0.0000000000000000e+00 0.0000000000000000e+00 0.0000000000000000e+00  0.0000000000000000e+00 0.0000000000000000e+00 0.0000000000000000e+00  0.0000000000000000e+00 0.0000000000000000e+00 0.0000000000000000e+00  0.0000000000000000e+00 0.0000000000000000e+00 0.0000000000000000e+00  0.0000000000000000e+00 0.0000000000000000e+00 0.0000000000000000e+00  0.0000000000000000e+00 0.0000000000000000e+00 0.0000000000000000e+00  0.0000000000000000e+00 0.0000000000000000e+00 0.0000000000000000e+00  0.0000000000000000e+00 0.0000000000000000e+00 0.0000000000000000e+00  0.0000000000000000e+00 0.0000000000000000e+00 0.0000000000000000e+00  0.0000000000000000e+00 0.0000000000000000e+00 0.0000000000000000e+00  0.0000000000000000e+00 0.0000000000000000e+00 0.0000000000000000e+00  0.0000000000000000e+00 0.0000000000000000e+00 0.0000000000000000e+00  0.0000000000000000e+00 0.0000000000000000e+00 0.0000000000000000e+00  0.0000000000000000e+00 0.0000000000000000e+00 0.0000000000000000e+00  0.0000000000000000e+00 0.0000000000000000e+00 0.0000000000000000e+00  0.0000000000000000e+00 0.0000000000000000e+00 0.0000000000000000e+00  0.0000000000000000e+00 0.0000000000000000e+00 0.0000000000000000e+00  0.0000000000000000e+00 0.0000000000000000e+00 0.0000000000000000e+00  0.0000000000000000e+00 0.0000000000000000e+00 0.0000000000000000e+00  0.0000000000000000e+00 0.0000000000000000e+00 0.0000000000000000e+00  0.0000000000000000e+00 0.0000000000000000e+00 0.0000000000000000e+00  0.0000000000000000e+00 0.0000000000000000e+00 0.0000000000000000e+00  0.0000000000000000e+00 0.0000000000000000e+00 0.0000000000000000e+00  0.0000000000000000e+00 0.0000000000000000e+00 0.0000000000000000e+00  0.0000000000000000e+00 0.0000000000000000e+00 0.0000000000000000e+00  0.0000000000000000e+00 0.0000000000000000e+00 0.0000000000000000e+00  0.0000000000000000e+00 0.0000000000000000e+00 0.0000000000000000e+00  0.0000000000000000e+00 0.0000000000000000e+00 0.0000000000000000e+00  0.0000000000000000e+00 0.0000000000000000e+00 0.0000000000000000e+00  0.0000000000000000e+00 0.0000000000000000e+00 0.0000000000000000e+00  0.0000000000000000e+00 0.0000000000000000e+00 0.0000000000000000e+00  0.0000000000000000e+00 0.0000000000000000e+00 0.0000000000000000e+00  0.0000000000000000e+00 0.0000000000000000e+00 0.0000000000000000e+00  0.0000000000000000e+00 0.0000000000000000e+00 0.0000000000000000e+00  0.0000000000000000e+00 0.0000000000000000e+00 0.0000000000000000e+00  0.0000000000000000e+00 0.0000000000000000e+00 0.0000000000000000e+00  0.0000000000000000e+00 0.0000000000000000e+00 0.0000000000000000e+00  0.0000000000000000e+00 0.0000000000000000e+00 0.0000000000000000e+00  0.0000000000000000e+00 0.0000000000000000e+00 0.0000000000000000e+00  0.0000000000000000e+00 0.0000000000000000e+00 0.0000000000000000e+00  0.0000000000000000e+00 0.0000000000000000e+00 0.0000000000000000e+00  0.0000000000000000e+00 0.0000000000000000e+00 0.0000000000000000e+00  0.0000000000000000e+00 0.0000000000000000e+00 0.0000000000000000e+00  0.0000000000000000e+00 0.0000000000000000e+00 0.0000000000000000e+00  0.0000000000000000e+00 0.0000000000000000e+00 0.0000000000000000e+00  0.0000000000000000e+00 0.0000000000000000e+00 0.0000000000000000e+00  0.0000000000000000e+00 0.0000000000000000e+00 0.0000000000000000e+00  0.0000000000000000e+00 0.0000000000000000e+00 0.0000000000000000e+00  0.0000000000000000e+00 0.0000000000000000e+00 0.0000000000000000e+00  0.0000000000000000e+00 0.0000000000000000e+00 0.0000000000000000e+00  0.0000000000000000e+00 0.0000000000000000e+00 0.0000000000000000e+00  0.0000000000000000e+00 0.0000000000000000e+00 0.0000000000000000e+00  0.0000000000000000e+00 0.0000000000000000e+00 0.0000000000000000e+00  0.0000000000000000e+00 0.0000000000000000e+00 0.0000000000000000e+00  0.0000000000000000e+00 0.0000000000000000e+00 0.0000000000000000e+00  0.0000000000000000e+00 0.0000000000000000e+00 0.0000000000000000e+00  0.0000000000000000e+00 0.0000000000000000e+00 0.0000000000000000e+00  0.0000000000000000e+00 0.0000000000000000e+00 0.0000000000000000e+00  0.0000000000000000e+00 0.0000000000000000e+00 0.0000000000000000e+00  0.0000000000000000e+00 0.0000000000000000e+00 0.0000000000000000e+00  0.0000000000000000e+00 0.0000000000000000e+00 0.0000000000000000e+00  0.0000000000000000e+00 0.0000000000000000e+00 0.0000000000000000e+00  0.0000000000000000e+00 0.0000000000000000e+00 0.0000000000000000e+00  0.0000000000000000e+00 0.0000000000000000e+00 0.0000000000000000e+00  0.0000000000000000e+00 0.0000000000000000e+00 0.0000000000000000e+00  0.0000000000000000e+00 0.0000000000000000e+00 0.0000000000000000e+00  0.0000000000000000e+00 0.0000000000000000e+00 0.0000000000000000e+00  0.0000000000000000e+00 0.0000000000000000e+00 0.0000000000000000e+00  0.0000000000000000e+00 0.0000000000000000e+00 0.0000000000000000e+00  0.0000000000000000e+00 0.0000000000000000e+00 0.0000000000000000e+00  0.0000000000000000e+00 0.0000000000000000e+00 0.0000000000000000e+00  0.0000000000000000e+00 0.0000000000000000e+00 0.0000000000000000e+00  0.0000000000000000e+00 0.0000000000000000e+00 0.0000000000000000e+00  0.0000000000000000e+00 0.0000000000000000e+00 0.0000000000000000e+00  0.0000000000000000e+00 0.0000000000000000e+00 0.0000000000000000e+00  0.0000000000000000e+00 0.0000000000000000e+00 0.0000000000000000e+00  0.0000000000000000e+00 0.0000000000000000e+00 0.0000000000000000e+00  0.0000000000000000e+00 0.0000000000000000e+00 0.0000000000000000e+00  0.0000000000000000e+00 0.0000000000000000e+00 0.0000000000000000e+00  0.0000000000000000e+00 0.0000000000000000e+00 0.0000000000000000e+00  0.0000000000000000e+00 0.0000000000000000e+00 0.0000000000000000e+00  0.0000000000000000e+00 0.0000000000000000e+00 0.0000000000000000e+00  0.0000000000000000e+00 0.0000000000000000e+00 0.0000000000000000e+00  0.0000000000000000e+00 0.0000000000000000e+00 0.0000000000000000e+00  0.0000000000000000e+00 0.0000000000000000e+00 0.0000000000000000e+00  0.0000000000000000e+00 0.0000000000000000e+00 0.0000000000000000e+00  0.0000000000000000e+00 0.0000000000000000e+00 0.0000000000000000e+00  0.0000000000000000e+00 0.0000000000000000e+00 0.0000000000000000e+00  0.0000000000000000e+00 0.0000000000000000e+00 0.0000000000000000e+00  0.0000000000000000e+00 0.0000000000000000e+00 0.0000000000000000e+00  0.0000000000000000e+00 0.0000000000000000e+00 0.0000000000000000e+00  0.0000000000000000e+00 0.0000000000000000e+00 0.0000000000000000e+00  0.0000000000000000e+00 0.0000000000000000e+00 0.0000000000000000e+00  0.0000000000000000e+00 0.0000000000000000e+00 0.0000000000000000e+00  0.0000000000000000e+00 0.0000000000000000e+00 0.0000000000000000e+00  0.0000000000000000e+00 0.0000000000000000e+00 0.0000000000000000e+00  0.0000000000000000e+00 0.0000000000000000e+00 0.0000000000000000e+00  0.0000000000000000e+00 0.0000000000000000e+00 0.0000000000000000e+00  0.0000000000000000e+00 0.0000000000000000e+00 0.0000000000000000e+00  0.0000000000000000e+00 0.0000000000000000e+00 0.0000000000000000e+00  0.0000000000000000e+00 0.0000000000000000e+00 0.0000000000000000e+00  0.0000000000000000e+00 0.0000000000000000e+00 0.0000000000000000e+00  0.0000000000000000e+00 0.0000000000000000e+00 0.0000000000000000e+00  0.0000000000000000e+00 0.0000000000000000e+00 0.0000000000000000e+00  0.0000000000000000e+00 0.0000000000000000e+00 0.0000000000000000e+00  0.0000000000000000e+00 0.0000000000000000e+00 0.0000000000000000e+00  0.0000000000000000e+00 0.0000000000000000e+00 0.0000000000000000e+00  0.0000000000000000e+00 0.0000000000000000e+00 0.0000000000000000e+00  0.0000000000000000e+00 0.0000000000000000e+00 0.0000000000000000e+00  0.0000000000000000e+00 0.0000000000000000e+00 0.0000000000000000e+00  0.0000000000000000e+00 0.0000000000000000e+00 0.0000000000000000e+00  0.0000000000000000e+00 0.0000000000000000e+00 0.0000000000000000e+00  0.0000000000000000e+00 0.0000000000000000e+00 0.0000000000000000e+00  0.0000000000000000e+00 0.0000000000000000e+00 0.0000000000000000e+00  0.0000000000000000e+00 0.0000000000000000e+00 0.0000000000000000e+00  0.0000000000000000e+00 0.0000000000000000e+00 0.0000000000000000e+00  0.0000000000000000e+00 0.0000000000000000e+00 0.0000000000000000e+00  0.0000000000000000e+00 0.0000000000000000e+00 0.0000000000000000e+00  0.0000000000000000e+00 0.0000000000000000e+00 0.0000000000000000e+00  0.0000000000000000e+00 0.0000000000000000e+00 0.0000000000000000e+00  0.0000000000000000e+00 0.0000000000000000e+00 0.0000000000000000e+00  0.0000000000000000e+00 0.0000000000000000e+00 0.0000000000000000e+00  0.0000000000000000e+00 0.0000000000000000e+00 0.0000000000000000e+00  0.0000000000000000e+00 0.0000000000000000e+00 0.0000000000000000e+00  0.0000000000000000e+00 0.0000000000000000e+00 0.0000000000000000e+00  0.0000000000000000e+00 0.0000000000000000e+00 0.0000000000000000e+00  0.0000000000000000e+00 0.0000000000000000e+00 0.0000000000000000e+00  0.0000000000000000e+00 0.0000000000000000e+00 0.0000000000000000e+00  0.0000000000000000e+00 0.0000000000000000e+00 0.0000000000000000e+00  0.0000000000000000e+00 0.0000000000000000e+00 0.0000000000000000e+00  0.0000000000000000e+00 0.0000000000000000e+00 0.0000000000000000e+00  0.0000000000000000e+00 0.0000000000000000e+00 0.0000000000000000e+00  0.000000