<?xml version="1.0"?>
<VTKFile type="UnstructuredGrid"  version="0.1"  >
<UnstructuredGrid>
<Piece  NumberOfPoints="23761" NumberOfCells="39749">
<Points>
<DataArray  type="Float64"  NumberOfComponents="3"  format="ascii">1 1 0  0.175292957959685 1 0  0 1 0  0 0.961558986449524 0  0 0.5604862565452906 0  0 0.08351738880530228 0  0 0 0  0.5824099185710206 0 0  0.7786664445695775 0 0  1 0 0  1 0.2653593132338428 0  1 0.6687662253941958 0  1 0.8394127714813772 0  1 0.9566323638958559 0  0.3174603174603174 0.8180135941747342 0  0.3224172591330514 0.8095238095238095 0  0.3212754259880581 0.7936507936507936 0  0.3174603174603174 0.7860633690473179 0  0.3119327435243212 0.7777777777777778 0  0.3015873015873016 0.7665986039325842 0  0.294832177354299 0.7619047619047619 0  0.2857142857142857 0.7560700886659691 0  0.2698412698412698 0.747972699377554 0  0.2669043582998595 0.746031746031746 0  0.253968253968254 0.7395437774765121 0  0.2380952380952381 0.7322939821704942 0  0.2222222222222222 0.7317881272147261 0  0.2063492063492063 0.7415824454351746 0  0.201643272932841 0.746031746031746 0  0.1904761904761905 0.7582874082533595 0  0.1865419085746575 0.7619047619047619 0  0.1746031746031746 0.7771532528992529 0  0.1738476691822168 0.7777777777777778 0  0.1647050470847257 0.7936507936507936 0  0.1587301587301587 0.8089813104685633 0  0.1428571428571428 0.8029943093677232 0  0.1321142240142371 0.7936507936507936 0  0.126984126984127 0.7879322007912879 0  0.119769893026587 0.7777777777777778 0  0.1208192507712199 0.7619047619047619 0  0.1258332409143814 0.746031746031746 0  0.126984126984127 0.7375087242620512 0  0.1275399167841687 0.7301587301587301 0  0.126984126984127 0.7246363570229141 0  0.125561129425354 0.7142857142857143 0  0.1181074189624623 0.6984126984126984 0  0.1111111111111111 0.6910495513735816 0  0.09523809523809523 0.6862488194038963 0  0.07936507936507936 0.6837945473004768 0  0.07320312086985815 0.6825396825396826 0  0.06349206349206349 0.6802912328366062 0  0.04761904761904762 0.6782083201228714 0  0.03174603174603174 0.6812655686252598 0  0.02894297201914328 0.6825396825396826 0  0.01587301587301587 0.6919140190217379 0  0.004562801203893802 0.6984126984126984 0  0.01559862919684167 0.7142857142857143 0  0.01587301587301587 0.7143635465174392 0  0.03174603174603174 0.7211917271741894 0  0.04761904761904762 0.7289868522140375 0  0.04937113600361963 0.7301587301587301 0  0.06349206349206349 0.7387741783523314 0  0.07179130220586562 0.746031746031746 0  0.07936507936507936 0.7566957303513079 0  0.08432343431294946 0.7619047619047619 0  0.08734160851407032 0.7777777777777778 0  0.07936507936507936 0.788220238747891 0  0.07658890301041299 0.7936507936507936 0  0.06349206349206349 0.8088630454465583 0  0.06294080850115891 0.8095238095238095 0  0.05252900034940785 0.8253968253968254 0  0.04957895879071043 0.8412698412698413 0  0.06349206349206349 0.8536824836198235 0  0.07372232714438665 0.8571428571428571 0  0.07936507936507936 0.8581144168927127 0  0.09523809523809523 0.8608390317051936 0  0.1111111111111111 0.8670671868125652 0  0.1178489516550749 0.873015873015873 0  0.1253024885457697 0.8888888888888888 0  0.1252343647226527 0.9047619047619048 0  0.1211859018952093 0.9206349206349206 0  0.1153394735563939 0.9365079365079365 0  0.1111111111111111 0.9474581006644176 0  0.1080020848992852 0.9523809523809523 0  0.09523809523809523 0.9673228353357223 0  0.0917476154510975 0.9682539682539683 0  0.07936507936507936 0.9722981063312585 0  0.06349206349206349 0.9744449289597725 0  0.04761904761904762 0.9793813859118002 0  0.04006479557285256 0.9841269841269841 0  0.03174603174603174 0.9924286118159057 0  0.1904761904761905 0.9875115297174124 0  0.1945325955329423 0.9841269841269841 0  0.2037982119683398 0.9682539682539683 0  0.203583478872619 0.9523809523809522 0  0.1990770526282201 0.9365079365079365 0  0.1924502562423545 0.9206349206349206 0  0.1904761904761905 0.9162588794544783 0  0.1856484222596172 0.9047619047619049 0  0.1807293695155161 0.8888888888888888 0  0.1774250368949914 0.873015873015873 0  0.1746031746031746 0.8607386904068113 0  0.1733323915957073 0.8571428571428571 0  0.1680256538838935 0.8412698412698413 0  0.1649783489984022 0.8253968253968254 0  0.1746031746031746 0.8148998889846126 0  0.1904761904761905 0.8142067513371901 0  0.2063492063492063 0.8117724130018922 0  0.2170468131028615 0.8095238095238095 0  0.2222222222222222 0.8084161690648528 0  0.2380952380952381 0.8077241990567403 0  0.2426166334245998 0.8095238095238095 0  0.253968253968254 0.8149725378006707 0  0.2665980014090125 0.8253968253968254 0  0.2698412698412698 0.8279767860002756 0  0.2857142857142857 0.8335591669765886 0  0.3015873015873016 0.8305701284051263 0  0.309966077621575 0.8253968253968254 0  0.01765636075608155 0.9365079365079365 0  0.01936633516492812 0.9206349206349206 0  0.01797530844110574 0.9047619047619048 0  0.01587301587301587 0.8962929673736939 0  0.01297540129958384 0.8888888888888888 0  5.266332407741611e-05 0.873015873015873 0  0.009953988987660083 0.9523809523809523 0  0.01587301587301587 0.9424836946337805 0  0.1998931700296994 0.4761904761904762 0  0.2016036630475187 0.4603174603174603 0  0.2008121246739336 0.4444444444444444 0  0.1971914887471277 0.4285714285714285 0  0.1904761904761905 0.4145112438601732 0  0.1895960567625712 0.4126984126984127 0  0.1792889574835199 0.3968253968253968 0  0.1746031746031746 0.3909120120593609 0  0.1659500150903921 0.3809523809523809 0  0.1587301587301587 0.3719921913355352 0  0.151798457511253 0.3650793650793651 0  0.1428571428571428 0.3553671206215639 0  0.1329036009739566 0.3492063492063492 0  0.126984126984127 0.3454388778740289 0  0.1111111111111111 0.3429423427017766 0  0.09523809523809523 0.3456899620766377 0  0.08094067573349763 0.3492063492063492 0  0.07936507936507936 0.3496856189331036 0  0.06349206349206349 0.3523472240504029 0  0.04761904761904762 0.35700178541009 0  0.03603407067510815 0.3650793650793651 0  0.03174603174603174 0.3683418928285296 0  0.01692702391285692 0.3809523809523809 0  0.01587301587301587 0.3816463837867716 0  0.003784984978464247 0.5714285714285714 0  0.01026439211316827 0.5873015873015873 0  0.01587301587301587 0.5959502934199767 0  0.02447533467159006 0.6031746031746031 0  0.03174603174603174 0.6088891186356324 0  0.04761904761904762 0.6111383413411713 0  0.05753058150505722 0.6031746031746031 0  0.06349206349206349 0.5961403420174656 0  0.06677227496196517 0.5873015873015873 0  0.06970599415984984 0.5714285714285714 0  0.06963423960691587 0.5555555555555556 0  0.06758381430635976 0.5396825396825397 0  0.06516857379397688 0.5238095238095238 0  0.06349206349206349 0.5128672579649479 0  0.06248170504094974 0.5079365079365079 0  0.05871162993545943 0.492063492063492 0  0.05714016941263282 0.4761904761904762 0  0.0604469710325587 0.4603174603174603 0  0.06349206349206349 0.453470024118778 0  0.07173933178451447 0.4444444444444444 0  0.07936507936507936 0.4400981816434985 0  0.09523809523809523 0.4425635246918558 0  0.09901211861176654 0.4444444444444444 0  0.1111111111111111 0.4492643488569973 0  0.125459324015529 0.4603174603174603 0  0.126984126984127 0.4620139293672067 0  0.1358983712507593 0.4761904761904762 0  0.1428571428571428 0.4902148669129022 0  0.1442361899928026 0.492063492063492 0  0.1587301587301587 0.5057790615817686 0  0.1746031746031746 0.5054295420360299 0  0.1904761904761905 0.4958263406215083 0  0.1937572577493221 0.492063492063492 0  0.2740047195233301 0.1587301587301587 0  0.2791836457576243 0.1428571428571428 0  0.2698412698412698 0.1293367923338641 0  0.253968253968254 0.1283533671866474 0  0.2380952380952381 0.1274600449308221 0  0.2353086045917152 0.126984126984127 0  0.2222222222222222 0.1253274802624256 0  0.2063492063492063 0.1223377890430537 0  0.1904761904761905 0.1198195693285908 0  0.1746031746031746 0.1194535543982614 0  0.1587301587301587 0.1232475565477096 0  0.1502146473105761 0.126984126984127 0  0.1428571428571428 0.1285520313526255 0  0.1411115454948038 0.126984126984127 0  0.1428571428571428 0.124775078519903 0  0.1527299391906574 0.1111111111111111 0  0.1587301587301587 0.1064319210232907 0  0.1679354901109883 0.09523809523809523 0  0.1746031746031746 0.08468696347990655 0  0.1770226707770026 0.07936507936507936 0  0.1847771300198122 0.06349206349206349 0  0.1904761904761905 0.06031653370387626 0  0.2063492063492063 0.05740854969333252 0  0.2222222222222222 0.05318725182477239 0  0.2312432272331587 0.04761904761904762 0  0.2380952380952381 0.04285588815659188 0  0.2463045053266562 0.03174603174603174 0  0.2532679017020888 0.01587301587301587 0  0.253968253968254 0.01169977784731085 0  0.01587301587301587 0.08584000567615678 0  0.03174603174603174 0.09334846314984473 0  0.03316899238484052 0.09523809523809523 0  0.0380787066580251 0.1111111111111111 0  0.03644537489443476 0.126984126984127 0  0.03174603174603174 0.1401611392059097 0  0.03074931505507994 0.1428571428571428 0  0.02467025090837427 0.1587301587301587 0  0.02195985973896115 0.1746031746031746 0  0.02299327395273516 0.1904761904761905 0  0.02625738885667057 0.2063492063492063 0  0.02990705911401851 0.2222222222222222 0  0.03174603174603174 0.2302957520638277 0  0.03510179144947025 0.2380952380952381 0  0.04761904761904762 0.2511280701250793 0  0.06349206349206349 0.2499179905173424 0  0.07936507936507936 0.2423672394529236 0  0.08850781059496862 0.2380952380952381 0  0.09523809523809523 0.2348030443899362 0  0.1111111111111111 0.2311124334268274 0  0.126984126984127 0.2317148478486909 0  0.1428571428571428 0.2340395426880645 0  0.1587301587301587 0.2356941137285287 0  0.1746031746031746 0.2352452477476828 0  0.1904761904761905 0.2310809993214912 0  0.2027621242224352 0.2222222222222222 0  0.2063492063492063 0.2186548124804752 0  0.214729727245977 0.2063492063492063 0  0.2222222222222222 0.1959098758259242 0  0.227057332737446 0.1904761904761905 0  0.2380952380952381 0.1810916086034079 0  0.2501418933482488 0.1746031746031746 0  0.2539682
[...]
<PointData  Vectors="f_133-0"> 
<DataArray  type="Float64"  Name="f_133-0"  NumberOfComponents="3" format="ascii">1.0000000016513264e+00 0.0000000000000000e+00 0.0000000000000000e+00  1.0000000016513264e+00 0.0000000000000000e+00 0.0000000000000000e+00  1.0000000016513264e+00 0.0000000000000000e+00 0.0000000000000000e+00  1.0000000016513275e+00 0.0000000000000000e+00 0.0000000000000000e+00  1.0000000016513264e+00 0.0000000000000000e+00 0.0000000000000000e+00  1.0000000016513275e+00 0.0000000000000000e+00 0.0000000000000000e+00  1.0000000016513264e+00 0.0000000000000000e+00 0.0000000000000000e+00  1.0000000016513275e+00 0.0000000000000000e+00 0.0000000000000000e+00  1.0000000016513275e+00 0.0000000000000000e+00 0.0000000000000000e+00  1.0000000016513264e+00 0.0000000000000000e+00 0.0000000000000000e+00  1.0000000016513275e+00 0.0000000000000000e+00 0.0000000000000000e+00  1.0000000016513275e+00 0.0000000000000000e+00 0.0000000000000000e+00  1.0000000016513264e+00 0.0000000000000000e+00 0.0000000000000000e+00  1.0000000016513275e+00 0.0000000000000000e+00 0.0000000000000000e+00  0.0000000000000000e+00 0.0000000000000000e+00 0.0000000000000000e+00  0.0000000000000000e+00 0.0000000000000000e+00 0.0000000000000000e+00  0.0000000000000000e+00 0.0000000000000000e+00 0.0000000000000000e+00  0.0000000000000000e+00 0.0000000000000000e+00 0.0000000000000000e+00  0.0000000000000000e+00 0.0000000000000000e+00 0.0000000000000000e+00  0.0000000000000000e+00 0.0000000000000000e+00 0.0000000000000000e+00  0.0000000000000000e+00 0.0000000000000000e+00 0.0000000000000000e+00  0.0000000000000000e+00 0.0000000000000000e+00 0.0000000000000000e+00  0.0000000000000000e+00 0.0000000000000000e+00 0.0000000000000000e+00  0.0000000000000000e+00 0.0000000000000000e+00 0.0000000000000000e+00  0.0000000000000000e+00 0.0000000000000000e+00 0.0000000000000000e+00  0.0000000000000000e+00 0.0000000000000000e+00 0.0000000000000000e+00  0.0000000000000000e+00 0.0000000000000000e+00 0.0000000000000000e+00  0.0000000000000000e+00 0.0000000000000000e+00 0.0000000000000000e+00  0.0000000000000000e+00 0.0000000000000000e+00 0.0000000000000000e+00  0.0000000000000000e+00 0.0000000000000000e+00 0.0000000000000000e+00  0.0000000000000000e+00 0.0000000000000000e+00 0.0000000000000000e+00  0.0000000000000000e+00 0.0000000000000000e+00 0.0000000000000000e+00  0.0000000000000000e+00 0.0000000000000000e+00 0.0000000000000000e+00  0.0000000000000000e+00 0.0000000000000000e+00 0.0000000000000000e+00  0.0000000000000000e+00 0.0000000000000000e+00 0.0000000000000000e+00  0.0000000000000000e+00 0.0000000000000000e+00 0.0000000000000000e+00  0.0000000000000000e+00 0.0000000000000000e+00 0.0000000000000000e+00  0.0000000000000000e+00 0.0000000000000000e+00 0.0000000000000000e+00  0.0000000000000000e+00 0.0000000000000000e+00 0.0000000000000000e+00  0.0000000000000000e+00 0.0000000000000000e+00 0.0000000000000000e+00  0.0000000000000000e+00 0.0000000000000000e+00 0.0000000000000000e+00  0.0000000000000000e+00 0.0000000000000000e+00 0.0000000000000000e+00  0.0000000000000000e+00 0.0000000000000000e+00 0.0000000000000000e+00  0.0000000000000000e+00 0.0000000000000000e+00 0.0000000000000000e+00  0.0000000000000000e+00 0.0000000000000000e+00 0.0000000000000000e+00  0.0000000000000000e+00 0.0000000000000000e+00 0.0000000000000000e+00  0.0000000000000000e+00 0.0000000000000000e+00 0.0000000000000000e+00  0.0000000000000000e+00 0.0000000000000000e+00 0.0000000000000000e+00  0.0000000000000000e+00 0.0000000000000000e+00 0.0000000000000000e+00  0.0000000000000000e+00 0.0000000000000000e+00 0.0000000000000000e+00  0.0000000000000000e+00 0.0000000000000000e+00 0.0000000000000000e+00  0.0000000000000000e+00 0.0000000000000000e+00 0.0000000000000000e+00  0.0000000000000000e+00 0.0000000000000000e+00 0.0000000000000000e+00  0.0000000000000000e+00 0.0000000000000000e+00 0.0000000000000000e+00  0.0000000000000000e+00 0.0000000000000000e+00 0.0000000000000000e+00  0.0000000000000000e+00 0.0000000000000000e+00 0.0000000000000000e+00  0.0000000000000000e+00 0.0000000000000000e+00 0.0000000000000000e+00  0.0000000000000000e+00 0.0000000000000000e+00 0.0000000000000000e+00  0.0000000000000000e+00 0.0000000000000000e+00 0.0000000000000000e+00  0.0000000000000000e+00 0.0000000000000000e+00 0.0000000000000000e+00  0.0000000000000000e+00 0.0000000000000000e+00 0.0000000000000000e+00  0.0000000000000000e+00 0.0000000000000000e+00 0.0000000000000000e+00  0.0000000000000000e+00 0.0000000000000000e+00 0.0000000000000000e+00  0.0000000000000000e+00 0.0000000000000000e+00 0.0000000000000000e+00  0.0000000000000000e+00 0.0000000000000000e+00 0.0000000000000000e+00  0.0000000000000000e+00 0.0000000000000000e+00 0.0000000000000000e+00  0.0000000000000000e+00 0.0000000000000000e+00 0.0000000000000000e+00  0.0000000000000000e+00 0.0000000000000000e+00 0.0000000000000000e+00  0.0000000000000000e+00 0.0000000000000000e+00 0.0000000000000000e+00  0.0000000000000000e+00 0.0000000000000000e+00 0.0000000000000000e+00  0.0000000000000000e+00 0.0000000000000000e+00 0.0000000000000000e+00  0.0000000000000000e+00 0.0000000000000000e+00 0.0000000000000000e+00  0.0000000000000000e+00 0.0000000000000000e+00 0.0000000000000000e+00  0.0000000000000000e+00 0.0000000000000000e+00 0.0000000000000000e+00  0.0000000000000000e+00 0.0000000000000000e+00 0.0000000000000000e+00  0.0000000000000000e+00 0.0000000000000000e+00 0.0000000000000000e+00  0.0000000000000000e+00 0.0000000000000000e+00 0.0000000000000000e+00  0.0000000000000000e+00 0.0000000000000000e+00 0.0000000000000000e+00  0.0000000000000000e+00 0.0000000000000000e+00 0.0000000000000000e+00  0.0000000000000000e+00 0.0000000000000000e+00 0.0000000000000000e+00  0.0000000000000000e+00 0.0000000000000000e+00 0.0000000000000000e+00  0.0000000000000000e+00 0.0000000000000000e+00 0.0000000000000000e+00  0.0000000000000000e+00 0.0000000000000000e+00 0.0000000000000000e+00  0.0000000000000000e+00 0.0000000000000000e+00 0.0000000000000000e+00  0.0000000000000000e+00 0.0000000000000000e+00 0.0000000000000000e+00  0.0000000000000000e+00 0.0000000000000000e+00 0.0000000000000000e+00  0.0000000000000000e+00 0.0000000000000000e+00 0.0000000000000000e+00  0.0000000000000000e+00 0.0000000000000000e+00 0.0000000000000000e+00  0.0000000000000000e+00 0.0000000000000000e+00 0.0000000000000000e+00  0.0000000000000000e+00 0.0000000000000000e+00 0.0000000000000000e+00  0.0000000000000000e+00 0.0000000000000000e+00 0.0000000000000000e+00  0.0000000000000000e+00 0.0000000000000000e+00 0.0000000000000000e+00  0.0000000000000000e+00 0.0000000000000000e+00 0.0000000000000000e+00  0.0000000000000000e+00 0.0000000000000000e+00 0.0000000000000000e+00  0.0000000000000000e+00 0.0000000000000000e+00 0.0000000000000000e+00  0.0000000000000000e+00 0.0000000000000000e+00 0.0000000000000000e+00  0.0000000000000000e+00 0.0000000000000000e+00 0.0000000000000000e+00  0.0000000000000000e+00 0.0000000000000000e+00 0.0000000000000000e+00  0.0000000000000000e+00 0.0000000000000000e+00 0.0000000000000000e+00  0.0000000000000000e+00 0.0000000000000000e+00 0.0000000000000000e+00  0.0000000000000000e+00 0.0000000000000000e+00 0.0000000000000000e+00  0.0000000000000000e+00 0.0000000000000000e+00 0.0000000000000000e+00  0.0000000000000000e+00 0.0000000000000000e+00 0.0000000000000000e+00  0.0000000000000000e+00 0.0000000000000000e+00 0.0000000000000000e+00  0.0000000000000000e+00 0.0000000000000000e+00 0.0000000000000000e+00  0.0000000000000000e+00 0.0000000000000000e+00 0.0000000000000000e+00  0.0000000000000000e+00 0.0000000000000000e+00 0.0000000000000000e+00  0.0000000000000000e+00 0.0000000000000000e+00 0.0000000000000000e+00  0.0000000000000000e+00 0.0000000000000000e+00 0.0000000000000000e+00  0.0000000000000000e+00 0.0000000000000000e+00 0.0000000000000000e+00  0.0000000000000000e+00 0.0000000000000000e+00 0.0000000000000000e+00  0.0000000000000000e+00 0.0000000000000000e+00 0.0000000000000000e+00  0.0000000000000000e+00 0.0000000000000000e+00 0.0000000000000000e+00  0.0000000000000000e+00 0.0000000000000000e+00 0.0000000000000000e+00  0.0000000000000000e+00 0.0000000000000000e+00 0.0000000000000000e+00  0.0000000000000000e+00 0.0000000000000000e+00 0.0000000000000000e+00  0.0000000000000000e+00 0.0000000000000000e+00 0.0000000000000000e+00  0.0000000000000000e+00 0.0000000000000000e+00 0.0000000000000000e+00  0.0000000000000000e+00 0.0000000000000000e+00 0.0000000000000000e+00  0.0000000000000000e+00 0.0000000000000000e+00 0.0000000000000000e+00  0.0000000000000000e+00 0.0000000000000000e+00 0.0000000000000000e+00  0.0000000000000000e+00 0.0000000000000000e+00 0.0000000000000000e+00  0.0000000000000000e+00 0.0000000000000000e+00 0.0000000000000000e+00  0.0000000000000000e+00 0.0000000000000000e+00 0.0000000000000000e+00  0.0000000000000000e+00 0.0000000000000000e+00 0.0000000000000000e+00  0.0000000000000000e+00 0.0000000000000000e+00 0.0000000000000000e+00  0.0000000000000000e+00 0.0000000000000000e+00 0.0000000000000000e+00  0.0000000000000000e+00 0.0000000000000000e+00 0.0000000000000000e+00  0.0000000000000000e+00 0.0000000000000000e+00 0.0000000000000000e+00  0.0000000000000000e+00 0.0000000000000000e+00 0.0000000000000000e+00  0.0000000000000000e+00 0.0000000000000000e+00 0.0000000000000000e+00  0.0000000000000000e+00 0.0000000000000000e+00 0.0000000000000000e+00  0.0000000000000000e+00 0.0000000000000000e+00 0.0000000000000000e+00  0.0000000000000000e+00 0.0000000000000000e+00 0.0000000000000000e+00  0.0000000000000000e+00 0.0000000000000000e+00 0.0000000000000000e+00  0.0000000000000000e+00 0.0000000000000000e+00 0.0000000000000000e+00  0.0000000000000000e+00 0.0000000000000000e+00 0.0000000000000000e+00  0.0000000000000000e+00 0.0000000000000000e+00 0.0000000000000000e+00  0.0000000000000000e+00 0.0000000000000000e+00 0.0000000000000000e+00  0.0000000000000000e+00 0.0000000000000000e+00 0.0000000000000000e+00  0.0000000000000000e+00 0.0000000000000000e+00 0.0000000000000000e+00  0.0000000000000000e+00 0.0000000000000000e+00 0.0000000000000000e+00  0.0000000000000000e+00 0.0000000000000000e+00 0.0000000000000000e+00  0.0000000000000000e+00 0.0000000000000000e+00 0.0000000000000000e+00  0.0000000000000000e+00 0.0000000000000000e+00 0.0000000000000000e+00  0.0000000000000000e+00 0.0000000000000000e+00 0.0000000000000000e+00  0.0000000000000000e+00 0.0000000000000000e+00 0.0000000000000000e+00  0.0000000000000000e+00 0.0000000000000000e+00 0.0000000000000000e+00  0.0000000000000000e+00 0.0000000000000000e+00 0.0000000000000000e+00  0.0000000000000000e+00 0.0000000000000000e+00 0.0000000000000000e+00  0.0000000000000000e+00 0.0000000000000000e+00 0.0000000000000000e+00  0.0000000000000000e+00 0.0000000000000000e+00 0.0000000000000000e+00  0.0000000000000000e+00 0.0000000000000000e+00 0.0000000000000000e+00  0.0000000000000000e+00 0.0000000000000000e+00 0.0000000000000000e+00  0.0000000000000000e+00 0.0000000000000000e+00 0.0000000000000000e+00  0.0000000000000000e+00 0.0000000000000000e+00 0.0000000000000000e+00  0.0000000000000000e+00 0.0000000000000000e+00 0.0000000000000000e+00  0.0000000000000000e+00 0.0000000000000000e+00 0.0000000000000000e+00  0.0000000000000000e+00 0.0000000000000000e+00 0.0000000000000000e+00  0.0000000000000000e+00 0.0000000000000000e+00 0.0000000000000000e+00  0.0000000000000000e+00 0.0000000000000000e+00 0.0000000000000000e+00  0.0000000000000000e+00 0.0000000000000000e+00 0.0000000000000000e+00  0.0000000000000000e+00 0.0000000000000000e+00 0.0000000000000000e+00  0.0000000000000000e+00 0.0000000000000000e+00 0.0000000000000000e+00  0.0000000000000000e+00 0.0000000000000000e+00 0.0000000000000000e+00  0.0000000000000000e+00 0.0000000000000000e+00 0.0000000000000000e+00  0.0000000000000000e+00 0.0000000000000000e+00 0.0000000000000000e+00  0.0000000000000000e+00 0.0000000000000000e+00 0.0000000000000000e+00  0.0000000000000000e+00 0.0000000000000000e+00 0.0000000000000000e+00  0.0000000000000000e+00 0.0000000000000000e+00 0.0000000000000000e+00  0.0000000000000000e+00 0.0000000000000000e+00 0.0000000000000000e+00  0.0000000000000000e+00 0.0000000000000000e+00 0.0000000000000000e+00  0.0000000000000000e+00 0.0000000000000000e+00 0.0000000000000000e+00  0.0000000000000000e+00 0.0000000000000000e+00 0.0000000000000000e+00  0.0000000000000000e+00 0.0000000000000000e+00 0.0000000000000000e+00  0.0000000000000000e+00 0.0000000000000000e+00 0.0000000000000000e+00  0.0000000000000000e+00 0.0000000000000000e+00 0.0000000000000000e+00  0.0000000000000000e+00 0.0000000000000000e+00 0.0000000000000000e+00  0.0000000000000000e+00 0.0000000000000000e+00 0.0000000000000000e+00  0.0000000000000000e+00 0.0000000000000000e+00 0.0000000000000000e+00  0.0000000000000000e+00 0.0000000000000000e+00 0.0000000000000000e+00  0.0000000000000000e+00 0.0000000000000000e+00 0.0000000000000000e+00  0.0000000000000000e+00 0.0000000000000000e+00 0.0000000000000000e+00  0.0000000000000000e+00 0.0000000000000000e+00 0.0000000000000000e+00  0.0000000000000000e+00 0.0000000000000000e+00 0.0000000000000000e+00  0.0000000000000000e+00 0.0000000000000000e+00 0.0000000000000000e+00  0.0000000000000000e+00 0.0000000000000000e+00 0.0000000000000000e+00  0.0000000000000000e+00 0.0000000000000000e+00 0.0000000000000000e+00  0.0000000000000000e+00 0.0000000000000000e+00 0.0000000000000000e+00  0.0000000000000000e+00 0.0000000000000000e+00 0.0000000000000000e+00  0.0000000000000000e+00 0.0000000000000000e+00 0.0000000000000000e+00  0.0000000000000000e+00 0.0000000000000000e+00 0.0000000000000000e+00  0.0000000000000000e+00 0.0000000000000000e+00 0.0000000000000000e+00  0.0000000000000000e+00 0.0000000000000000e+00 0.0000000000000000e+00  0.0000000000000000e+00 0.0000000000000000e+00 0.0000000000000000e+00  0.0000000000000000e+00 0.0000000000000000e+00 0.0000000000000000e+00  0.0000000000000000e+00 0.0000000000000000e+00 0.0000000000000000e+00  0.0000000000000000e+00 0.0000000000000000e+00 0.0000000000000000e+00  0.0000000000000000e+00 0.0000000000000000e+00 0.0000000000000000e+00  0.0000000000000000e+00 0.0000000000000000e+00 0.0000000000000000e+00  0.0000000000000000e+00 0.0000000000000000e+00 0.0000000000000000e+00  0.0000000000000000e+00 0.0000000000000000e+00 0.0000000000000000e+00  0.0000000000000000e+00 0.0000000000000000e+00 0.0000000000000000e+00  0.0000000000000000e+00 0.0000000000000000e+00 0.0000000000000000e+00  0.0000000000000000e+00 0.0000000000000000e+00 0.0000000000000000e+00  0.0000000000000000e+00 0.0000000000000000e+00 0.0000000000000000e+00  0.0000000000000000e+00 0.0000000000000000e+00 0.0000000000000000e+00  0.0000000000000000e+00 0.0000000000000000e+00 0.0000000000000000e+00  0.0000000000000000e+00 0.0000000000000000e+00 0.0000000000000000e+00  0.0000000000000000e+00 0.0000000000000000e+00 0.0000000000000000e+00  0.0000000000000000e+00 0.0000000000000000e+00 0.0000000000000000e+00  0.0000000000000000e+00 0.0000000000000000e+00 0.0000000000000000e+00  0.0000000000000000e+00 0.0000000000000000e+00 0.0000000000000000e+00  0.0000000000000000e+00 0.0000000000000000e+00 0.0000000000000000e+00  0.0000000000000000e+00 0.0000000000000000e+00 0.0000000000000000e+00  0.0000000000000000e+00 0.0000000000000000e+00 0.0000000000000000e+00  0.0000000000000000e+00 0.0000000000000000e+00 0.0000000000000000e+00  0.0000000000000000e+00 0.0000000000000000e+00 0.0000000000000000e+00  0.0000000000000000e+00 0.0000000000000000e+00 0.0000000000000000e+00  0.0000000000000000e+00 0.0000000000000000e+00 0.0000000000000000e+00  0.0000000000000000e+00 0.0000000000000000e+00 0.0000000000000000e+00  0.0000000000000000e+00 0.0000000000000000e+00 0.0000000000000000e+00  0.0000000000000000e+00 0.0000000000000000e+00 0.0000000000000000e+00  0.0000000000000000e+00 0.0000000000000000e+00 0.0000000000000000e+00  0.0000000000000000e+00 0.0000000000000000e+00 0.0000000000000000e+00  0.0000000000000000e+00 0.0000000000000000e+00 0.0000000000000000e+00  0.0000000000000000e+00 0.0000000000000000e+00 0.0000000000000000e+00  0.0000000000000000e+00 0.0000000000000000e+00 0.0000000000000000e+00  0.0000000000000000e+00 0.0000000000000000e+00 0.0000000000000000e+00  0.0000000000000000e+00 0.0000000000000000e+00 0.0000000000000000e+00  0.0000000000000000e+00 0.0000000000000000e+00 0.0000000000000000e+00  0.0000000000000000e+00 0.0000000000000000e+00 0.0000000000000000e+00  0.0000000000000000e+00 0.0000000000000000e+00 0.0000000000000000e+00  0.0000000000000000e+00 0.0000000000000000e+00 0.0000000000000000e+00  0.0000000000000000e+00 0.0000000000000000e+00 0.0000000000000000e+00  0.0000000000000000e+00 0.0000000000000000e+00 0.0000000000000000e+00  0.0000000000000000e+00 0.0000000000000000e+00 0.0000000000000000e+00  0.0000000000000000e+00 0.0000000000000000e+00 0.0000000000000000e+00  0.0000000000000000e+00 0.0000000000000000e+00 0.0000000000000000e+00  0.0000000000000000e+00 0.0000000000000000e+00 0.0000000000000000e+00  0.0000000000000000e+00 0.0000000000000000e+00 0.0000000000000000e+00  0.0000000000000000e+00 0.0000000000000000e+00 0.0000000000000000e+00  0.0000000000000000e+00 0.0000000000000000e+00 0.0000000000000000e+00  0.0000000000000000e+00 0.0000000000000000e+00 0.0000000000000000e+00  0.0000000000000000e+00 0.0000000000000000e+00 0.0000000000000000e+00  0.0000000000000000e+00 0.0000000000000000e+00 0.0000000000000000e+00  0.0000000000000000e+00 0.0000000000000000e+00 0.0000000000000000e+00  0.0000000000000000e+00 0.0000000000000000e+00 0.0000000000000000e+00  0.0000000000000000e+00 0.0000000000000000e+00 0.0000000000000000e+00  0.0000000000000000e+00 0.0000000000000000e+00 0.0000000000000000e+00  0.0000000000000000e+00 0.0000000000000000e+00 0.0000000000000000e+00  0.0000000000000000e+00 0.0000000000000000e+00 0.0000000000000000e+00  0.0000000000000000e+00 0.0000000000000000e+00 0.0000000000000000e+00  0.0000000000000000e+00 0.0000000000000000e+00 0.0000000000000000e+00  0.0000000000000000e+00 0.0000000000000000e+00 0.0000000000000000e+00  0.0000000000000000e+00 0.0000000000000000e+00 0.0000000000000000e+00  0.0000000000000000e+00 0.0000000000000000e+00 0.0000000000000000e+00  0.0000000000000000e+00 0.0000000000000000e+00 0.0000000000000000e+00  0.0000000000000000e+00 0.0000000000000000e+00 0.0000000000000000e+00  0.0000000000000000e+00 0.0000000000000000e+00 0.0000000000000000e+00  0.0000000000000000e+00 0.0000000000000000e+00 0.0000000000000000e+00  0.0000000000000000e+00 0.0000000000000000e+00 0.0000000000000000e+00  0.0000000000000000e+00 0.0000000000000000e+00 0.0000000000000000e+00  0.0000000000000000e+00 0.0000000000000000e+00 0.0000000000000000e+00  0.0000000000000000e+00 0.0000000000000000e+00 0.0000000000000000e+00  0.0000000000000000e+00 0.0000000000000000e+00 0.0000000000000000e+00  0.0000000000000000e+00 0.0000000000000000e+00 0.0000000000000000e+00  0.0000000000000000e+00 0.0000000000000000e+00 0.0000000000000000e+00  0.0000000000000000e+00 0.0000000000000000e+00 0.0000000000000000e+00  0.0000000000000000e+00 0.0000000000000000e+00 0.0000000000000000e+00  0.0000000000000000e+00 0.0000000000000000e+00 0.0000000000000000e+00  0.0000000000000000e+00 0.0000000000000000e+00 0.0000000000000000e+00  0.0000000000000000e+00 0.0000000000000000e+00 0.0000000000000000e+00  0.0000000000000000e+00 0.0000000000000000e+00 0.0000000000000000e+00  0.0000000000000000e+00 0.0000000000000000e+00 0.0000000000000000e+00  0.0000000000000000e+00 0.0000000000000000e+00 0.0000000000000000e+00  0.0000000000000000e+00 0.0000000000000000e+00 0.0000000000000000e+00  0.0000000000000000e+00 0.0000000000000000e+00 0.0000000000000000e+00  0.0000000000000000e+00 0.0000000000000000e+00 0.0000000000000000e+00  0.0000000000000000e+00 0.0000000000000000e+00 0.0000000000000000e+00  0.0000000000000000e+00 0.0000000000000000e+00 0.0000000000000000e+00  0.0000000000000000e+00 0.0000000000000000e+00 0.0000000000000000e+00  0.0000000000000000e+00 0.0000000000000000e+00 0.0000000000000000e+00  0.0000000000000000e+00 0.0000000000000000e+00 0.0000000000000000e+00  0.0000