<?xml version="1.0"?>
<VTKFile type="UnstructuredGrid"  version="0.1"  >
<UnstructuredGrid>
<Piece  NumberOfPoints="23539" NumberOfCells="43281">
<Points>
<DataArray  type="Float64"  NumberOfComponents="3"  format="ascii">0 1 0  0 0 0  1 0 0  1 1 0  0.1338582677165354 0.9421599206323023 0  0.1392471746744841 0.937007874015748 0  0.1363532632286211 0.9291338582677166 0  0.1338582677165354 0.926610636429304 0  0.1283144931801714 0.9212598425196851 0  0.1259842519685039 0.9142702777221614 0  0.1258331470236988 0.9133858267716535 0  0.1255814244361 0.905511811023622 0  0.1259842519685039 0.9025284080355703 0  0.1266042508404362 0.8976377952755905 0  0.1296207244256961 0.889763779527559 0  0.1325778821583813 0.8818897637795275 0  0.1259842519685039 0.8774970240453812 0  0.1181102362204724 0.8758809567041242 0  0.1102362204724409 0.8745681351044226 0  0.1037881077077778 0.8740157480314961 0  0.1023622047244094 0.8739089938050648 0  0.1020470670994179 0.8740157480314961 0  0.09448818897637795 0.878240366292608 0  0.09032086606561829 0.8818897637795275 0  0.08997890801278741 0.889763779527559 0  0.08786128204751913 0.8976377952755905 0  0.08661417322834646 0.8984605009039458 0  0.07874015748031496 0.9005530895530607 0  0.07123416321345417 0.8976377952755905 0  0.0740487927039343 0.889763779527559 0  0.07607845154273804 0.8818897637795275 0  0.07260572699514192 0.8740157480314961 0  0.07086614173228346 0.8720579369840696 0  0.06661363479634733 0.8661417322834646 0  0.06299212598425197 0.8622064296294826 0  0.05737732252599893 0.8582677165354331 0  0.05511811023622047 0.8564763499847171 0  0.04724409448818898 0.8507615637131278 0  0.04627236630055521 0.8503937007874016 0  0.03937007874015748 0.8484084603682887 0  0.03851497048810411 0.8503937007874016 0  0.03605032756678138 0.8582677165354331 0  0.03455853432012203 0.8661417322834646 0  0.03289817536274707 0.8740157480314961 0  0.03218717111396197 0.8818897637795275 0  0.03323691146938866 0.889763779527559 0  0.03476322650556266 0.8976377952755905 0  0.03559648021780717 0.905511811023622 0  0.03629026446863462 0.9133858267716535 0  0.03742279652438633 0.9212598425196851 0  0.0385291733729204 0.9291338582677166 0  0.03871610448839318 0.937007874015748 0  0.03798818477812219 0.9448818897637795 0  0.03778167002169719 0.952755905511811 0  0.03937007874015748 0.9604768007345954 0  0.03956497303860051 0.9606299212598425 0  0.04724409448818898 0.9617074117604263 0  0.05511811023622047 0.9617775021014967 0  0.06299212598425197 0.9607609733408466 0  0.06383134539181246 0.9606299212598425 0  0.07086614173228346 0.9542501165631099 0  0.07293823211699815 0.952755905511811 0  0.07874015748031496 0.9450608382217947 0  0.07904016584642878 0.9448818897637795 0  0.08661417322834646 0.9412068159316397 0  0.09448818897637795 0.9382791992807414 0  0.09656565280284747 0.937007874015748 0  0.1023622047244094 0.9343712898670409 0  0.1102362204724409 0.9314949236960064 0  0.1181102362204724 0.9317068263289514 0  0.1231706849342872 0.937007874015748 0  0.1259842519685039 0.9404519490109399 0  0.1911734482375383 0.7952755905511811 0  0.192225485485546 0.7874015748031495 0  0.1889800864399195 0.7795275590551181 0  0.1889763779527559 0.7795234752303245 0  0.1811023622047244 0.7754237910205349 0  0.1732283464566929 0.7749148125170444 0  0.1653543307086614 0.7785936845562581 0  0.1643418970649909 0.7795275590551181 0  0.1574803149606299 0.7845671040243851 0  0.1546639894840694 0.7874015748031495 0  0.1496062992125984 0.7916441822058424 0  0.1461666874580027 0.7952755905511811 0  0.1431490314978565 0.8031496062992126 0  0.1417322834645669 0.8082062178931788 0  0.140689536942715 0.8110236220472441 0  0.1348840542344442 0.8188976377952756 0  0.1338582677165354 0.8213056295541972 0  0.1308905379881997 0.8267716535433071 0  0.1331836269189549 0.8346456692913385 0  0.1338582677165354 0.8377107003543315 0  0.1417322834645669 0.8362396886074848 0  0.1429797665831598 0.8346456692913385 0  0.1496062992125984 0.8306615948339344 0  0.156407040173296 0.8267716535433071 0  0.1574803149606299 0.826026678672087 0  0.1653543307086614 0.8189797568386624 0  0.1654351546132368 0.8188976377952756 0  0.1714157154379912 0.8110236220472441 0  0.1732283464566929 0.8095688312522656 0  0.1811023622047244 0.80486210355796 0  0.1832836402727184 0.8031496062992126 0  0.1889763779527559 0.79844498355715 0  0.4330708661417323 0.6724783938307322 0  0.4405037055333068 0.6692913385826772 0  0.4348469668678759 0.6614173228346456 0  0.4330708661417323 0.6607800262794062 0  0.4251968503937008 0.6579683570225551 0  0.4173228346456693 0.655786857472353 0  0.4094488188976378 0.6555038139263913 0  0.4015748031496063 0.6545930461491174 0  0.3996074913665057 0.6535433070866141 0  0.3944948308634846 0.6456692913385826 0  0.3937007874015748 0.644261070673755 0  0.3902142258916575 0.6377952755905512 0  0.3858267716535433 0.6347143992212724 0  0.3779527559055118 0.6306696823004486 0  0.3759608415130071 0.6299212598425197 0  0.3700787401574803 0.6271193887619131 0  0.3622047244094488 0.6270445752356794 0  0.3543307086614173 0.6289615560106144 0  0.3464566929133858 0.6275621340721611 0  0.3385826771653543 0.6241319290532047 0  0.3307086614173228 0.6265795746018169 0  0.3262700919340119 0.6299212598425197 0  0.3228346456692913 0.6327650291390063 0  0.3149606299212598 0.6346465085876244 0  0.3095532930006887 0.6299212598425197 0  0.3070866141732284 0.6263516951102296 0  0.3031360794487063 0.6220472440944882 0  0.3070866141732284 0.6181128387387876 0  0.3094230252316508 0.6141732283464567 0  0.3149606299212598 0.6098808188522513 0  0.3183453210535791 0.6062992125984252 0  0.3219591914005422 0.5984251968503937 0  0.3212073861713952 0.5905511811023622 0  0.3162264276596055 0.5826771653543307 0  0.3149606299212598 0.5797763612148177 0  0.3120541969683408 0.5748031496062992 0  0.3133469276551985 0.5669291338582677 0  0.313636127106894 0.5590551181102362 0  0.3126606095024976 0.5511811023622047 0  0.3103970674619745 0.5433070866141733 0  0.3070866141732284 0.5381226621023414 0  0.2996286938253801 0.5354330708661417 0  0.2992125984251969 0.5350955083807393 0  0.2938056615034708 0.5275590551181102 0  0.2992125984251969 0.5206912476057082 0  0.2998400346804316 0.5196850393700787 0  0.3047815482335864 0.5118110236220472 0  0.3066275679571842 0.5039370078740157 0  0.3070866141732284 0.5036243713425279 0  0.3149606299212598 0.5039260232289328 0  0.3150001147027069 0.5039370078740157 0  0.3228346456692913 0.5083717817261094 0  0.3307086614173228 0.5103990983502981 0  0.331567173792523 0.5118110236220472 0  0.3385826771653543 0.5174505060365878 0  0.3410987605950322 0.5196850393700787 0  0.3464566929133858 0.5220653066780105 0  0.3543307086614173 0.5211984244982073 0  0.3568210933137878 0.5196850393700787 0  0.3622047244094488 0.5163498581907144 0  0.3657845085634563 0.5118110236220472 0  0.3666272345984707 0.5039370078740157 0  0.3658401227077643 0.4960629921259843 0  0.3652735834960992 0.4881889763779528 0  0.3622047244094488 0.4826151107984594 0  0.3592164031180006 0.4803149606299212 0  0.3543307086614173 0.4767911954912612 0  0.3480756926233901 0.4724409448818898 0  0.3464566929133858 0.4656999568653702 0  0.3385826771653543 0.4658032228414198 0  0.3307086614173228 0.4669214419237356 0  0.3256240550865764 0.4645669291338583 0  0.3228346456692913 0.4606848495013977 0  0.3201882744224648 0.4566929133858267 0  0.3149606299212598 0.454272533488528 0  0.3070866141732284 0.4559259033084787 0  0.3054708074927476 0.4566929133858267 0  0.2992125984251969 0.4600849095960878 0  0.2913385826771653 0.462769445015994 0  0.2834645669291339 0.4603208086964954 0  0.2778520003959037 0.4566929133858267 0  0.2755905511811024 0.4557634608916495 0  0.2677165354330708 0.4518991736614769 0  0.2641113022551871 0.4488188976377953 0  0.2614512296488493 0.4409448818897638 0  0.264882607438414 0.4330708661417323 0  0.2677165354330708 0.4263452996595093 0  0.2683704243460661 0.4251968503937008 0  0.2692228898308176 0.4173228346456693 0  0.2684724638380465 0.4094488188976378 0  0.2677165354330708 0.4085325678800272 0  0.2674856061808349 0.4094488188976378 0  0.2598425196850394 0.4110610965354701 0  0.2519685039370079 0.4129060135737377 0  0.2440944881889764 0.4160235624808702 0  0.2419034418756073 0.4173228346456693 0  0.2362204724409449 0.4198068707230834 0  0.2283464566929134 0.4231547992006516 0  0.2230362254433363 0.4251968503937008 0  0.2204724409448819 0.4269259071134164 0  0.2126710132360384 0.4330708661417323 0  0.2125984251968504 0.4331897391235626 0  0.2066744264369581 0.4409448818897638 0  0.2047244094488189 0.4426208496756583 0  0.1968503937007874 0.4435635250544244 0  0.1889763779527559 0.4447856652428738 0  0.1851258427992471 0.4488188976377953 0  0.182241604752276 0.4566929133858267 0  0.1889763779527559 0.4628147412019025 0  0.1968503937007874 0.4633312725278437 0  0.2002320645187223 0.4645669291338583 0  0.2046047050289764 0.4724409448818898 0  0.1968503937007874 0.4747641586360774 0  0.1889763779527559 0.4779621564802191 0  0.1857043687024197 0.4803149606299212 0  0.1811023622047244 0.4835870212287688 0  0.1732283464566929 0.4873467654274838 0  0.1698011673591825 0.4881889763779528 0  0.1653543307086614 0.490798165172803 0  0.1574803149606299 0.491710212135551 0  0.1520208192447456 0.4881889763779528 0  0.1496062992125984 0.4876531298535755 0  0.1417322834645669 0.4880186507948187 0  0.1414865225311938 0.4881889763779528 0  0.1350128494479362 0.4960629921259843 0  0.1338582677165354 0.4973242787633043 0  0.1307779832615811 0.5039370078740157 0  0.1259842519685039 0.5107728135166302 0  0.1253473743940158 0.5118110236220472 0  0.1236598018931914 0.5196850393700787 0  0.1259842519685039 0.5264244383959197 0  0.1338582677165354 0.5260941719493213 0  0.1385836985390124 0.5196850393700787 0  0.1417322834645669 0.5159509057712865 0  0.1459402379212641 0.5118110236220472 0  0.1496062992125984 0.5062437202195016 0  0.1574803149606299 0.5098057876614145 0  0.1579792607764001 0.5118
[...]
<PointData  Vectors="f_317-0"> 
<DataArray  type="Float64"  Name="f_317-0"  NumberOfComponents="3" format="ascii">0.0000000000000000e+00 -1.0000000022171365e+00 0.0000000000000000e+00  0.0000000000000000e+00 -1.0000000022171365e+00 0.0000000000000000e+00  0.0000000000000000e+00 -1.0000000022171365e+00 0.0000000000000000e+00  0.0000000000000000e+00 -1.0000000022171365e+00 0.0000000000000000e+00  0.0000000000000000e+00 0.0000000000000000e+00 0.0000000000000000e+00  0.0000000000000000e+00 0.0000000000000000e+00 0.0000000000000000e+00  0.0000000000000000e+00 0.0000000000000000e+00 0.0000000000000000e+00  0.0000000000000000e+00 0.0000000000000000e+00 0.0000000000000000e+00  0.0000000000000000e+00 0.0000000000000000e+00 0.0000000000000000e+00  0.0000000000000000e+00 0.0000000000000000e+00 0.0000000000000000e+00  0.0000000000000000e+00 0.0000000000000000e+00 0.0000000000000000e+00  0.0000000000000000e+00 0.0000000000000000e+00 0.0000000000000000e+00  0.0000000000000000e+00 0.0000000000000000e+00 0.0000000000000000e+00  0.0000000000000000e+00 0.0000000000000000e+00 0.0000000000000000e+00  0.0000000000000000e+00 0.0000000000000000e+00 0.0000000000000000e+00  0.0000000000000000e+00 0.0000000000000000e+00 0.0000000000000000e+00  0.0000000000000000e+00 0.0000000000000000e+00 0.0000000000000000e+00  0.0000000000000000e+00 0.0000000000000000e+00 0.0000000000000000e+00  0.0000000000000000e+00 0.0000000000000000e+00 0.0000000000000000e+00  0.0000000000000000e+00 0.0000000000000000e+00 0.0000000000000000e+00  0.0000000000000000e+00 0.0000000000000000e+00 0.0000000000000000e+00  0.0000000000000000e+00 0.0000000000000000e+00 0.0000000000000000e+00  0.0000000000000000e+00 0.0000000000000000e+00 0.0000000000000000e+00  0.0000000000000000e+00 0.0000000000000000e+00 0.0000000000000000e+00  0.0000000000000000e+00 0.0000000000000000e+00 0.0000000000000000e+00  0.0000000000000000e+00 0.0000000000000000e+00 0.0000000000000000e+00  0.0000000000000000e+00 0.0000000000000000e+00 0.0000000000000000e+00  0.0000000000000000e+00 0.0000000000000000e+00 0.0000000000000000e+00  0.0000000000000000e+00 0.0000000000000000e+00 0.0000000000000000e+00  0.0000000000000000e+00 0.0000000000000000e+00 0.0000000000000000e+00  0.0000000000000000e+00 0.0000000000000000e+00 0.0000000000000000e+00  0.0000000000000000e+00 0.0000000000000000e+00 0.0000000000000000e+00  0.0000000000000000e+00 0.0000000000000000e+00 0.0000000000000000e+00  0.0000000000000000e+00 0.0000000000000000e+00 0.0000000000000000e+00  0.0000000000000000e+00 0.0000000000000000e+00 0.0000000000000000e+00  0.0000000000000000e+00 0.0000000000000000e+00 0.0000000000000000e+00  0.0000000000000000e+00 0.0000000000000000e+00 0.0000000000000000e+00  0.0000000000000000e+00 0.0000000000000000e+00 0.0000000000000000e+00  0.0000000000000000e+00 0.0000000000000000e+00 0.0000000000000000e+00  0.0000000000000000e+00 0.0000000000000000e+00 0.0000000000000000e+00  0.0000000000000000e+00 0.0000000000000000e+00 0.0000000000000000e+00  0.0000000000000000e+00 0.0000000000000000e+00 0.0000000000000000e+00  0.0000000000000000e+00 0.0000000000000000e+00 0.0000000000000000e+00  0.0000000000000000e+00 0.0000000000000000e+00 0.0000000000000000e+00  0.0000000000000000e+00 0.0000000000000000e+00 0.0000000000000000e+00  0.0000000000000000e+00 0.0000000000000000e+00 0.0000000000000000e+00  0.0000000000000000e+00 0.0000000000000000e+00 0.0000000000000000e+00  0.0000000000000000e+00 0.0000000000000000e+00 0.0000000000000000e+00  0.0000000000000000e+00 0.0000000000000000e+00 0.0000000000000000e+00  0.0000000000000000e+00 0.0000000000000000e+00 0.0000000000000000e+00  0.0000000000000000e+00 0.0000000000000000e+00 0.0000000000000000e+00  0.0000000000000000e+00 0.0000000000000000e+00 0.0000000000000000e+00  0.0000000000000000e+00 0.0000000000000000e+00 0.0000000000000000e+00  0.0000000000000000e+00 0.0000000000000000e+00 0.0000000000000000e+00  0.0000000000000000e+00 0.0000000000000000e+00 0.0000000000000000e+00  0.0000000000000000e+00 0.0000000000000000e+00 0.0000000000000000e+00  0.0000000000000000e+00 0.0000000000000000e+00 0.0000000000000000e+00  0.0000000000000000e+00 0.0000000000000000e+00 0.0000000000000000e+00  0.0000000000000000e+00 0.0000000000000000e+00 0.0000000000000000e+00  0.0000000000000000e+00 0.0000000000000000e+00 0.0000000000000000e+00  0.0000000000000000e+00 0.0000000000000000e+00 0.0000000000000000e+00  0.0000000000000000e+00 0.0000000000000000e+00 0.0000000000000000e+00  0.0000000000000000e+00 0.0000000000000000e+00 0.0000000000000000e+00  0.0000000000000000e+00 0.0000000000000000e+00 0.0000000000000000e+00  0.0000000000000000e+00 0.0000000000000000e+00 0.0000000000000000e+00  0.0000000000000000e+00 0.0000000000000000e+00 0.0000000000000000e+00  0.0000000000000000e+00 0.0000000000000000e+00 0.0000000000000000e+00  0.0000000000000000e+00 0.0000000000000000e+00 0.0000000000000000e+00  0.0000000000000000e+00 0.0000000000000000e+00 0.0000000000000000e+00  0.0000000000000000e+00 0.0000000000000000e+00 0.0000000000000000e+00  0.0000000000000000e+00 0.0000000000000000e+00 0.0000000000000000e+00  0.0000000000000000e+00 0.0000000000000000e+00 0.0000000000000000e+00  0.0000000000000000e+00 0.0000000000000000e+00 0.0000000000000000e+00  0.0000000000000000e+00 0.0000000000000000e+00 0.0000000000000000e+00  0.0000000000000000e+00 0.0000000000000000e+00 0.0000000000000000e+00  0.0000000000000000e+00 0.0000000000000000e+00 0.0000000000000000e+00  0.0000000000000000e+00 0.0000000000000000e+00 0.0000000000000000e+00  0.0000000000000000e+00 0.0000000000000000e+00 0.0000000000000000e+00  0.0000000000000000e+00 0.0000000000000000e+00 0.0000000000000000e+00  0.0000000000000000e+00 0.0000000000000000e+00 0.0000000000000000e+00  0.0000000000000000e+00 0.0000000000000000e+00 0.0000000000000000e+00  0.0000000000000000e+00 0.0000000000000000e+00 0.0000000000000000e+00  0.0000000000000000e+00 0.0000000000000000e+00 0.0000000000000000e+00  0.0000000000000000e+00 0.0000000000000000e+00 0.0000000000000000e+00  0.0000000000000000e+00 0.0000000000000000e+00 0.0000000000000000e+00  0.0000000000000000e+00 0.0000000000000000e+00 0.0000000000000000e+00  0.0000000000000000e+00 0.0000000000000000e+00 0.0000000000000000e+00  0.0000000000000000e+00 0.0000000000000000e+00 0.0000000000000000e+00  0.0000000000000000e+00 0.0000000000000000e+00 0.0000000000000000e+00  0.0000000000000000e+00 0.0000000000000000e+00 0.0000000000000000e+00  0.0000000000000000e+00 0.0000000000000000e+00 0.0000000000000000e+00  0.0000000000000000e+00 0.0000000000000000e+00 0.0000000000000000e+00  0.0000000000000000e+00 0.0000000000000000e+00 0.0000000000000000e+00  0.0000000000000000e+00 0.0000000000000000e+00 0.0000000000000000e+00  0.0000000000000000e+00 0.0000000000000000e+00 0.0000000000000000e+00  0.0000000000000000e+00 0.0000000000000000e+00 0.0000000000000000e+00  0.0000000000000000e+00 0.0000000000000000e+00 0.0000000000000000e+00  0.0000000000000000e+00 0.0000000000000000e+00 0.0000000000000000e+00  0.0000000000000000e+00 0.0000000000000000e+00 0.0000000000000000e+00  0.0000000000000000e+00 0.0000000000000000e+00 0.0000000000000000e+00  0.0000000000000000e+00 0.0000000000000000e+00 0.0000000000000000e+00  0.0000000000000000e+00 0.0000000000000000e+00 0.0000000000000000e+00  0.0000000000000000e+00 0.0000000000000000e+00 0.0000000000000000e+00  0.0000000000000000e+00 0.0000000000000000e+00 0.0000000000000000e+00  0.0000000000000000e+00 0.0000000000000000e+00 0.0000000000000000e+00  0.0000000000000000e+00 0.0000000000000000e+00 0.0000000000000000e+00  0.0000000000000000e+00 0.0000000000000000e+00 0.0000000000000000e+00  0.0000000000000000e+00 0.0000000000000000e+00 0.0000000000000000e+00  0.0000000000000000e+00 0.0000000000000000e+00 0.0000000000000000e+00  0.0000000000000000e+00 0.0000000000000000e+00 0.0000000000000000e+00  0.0000000000000000e+00 0.0000000000000000e+00 0.0000000000000000e+00  0.0000000000000000e+00 0.0000000000000000e+00 0.0000000000000000e+00  0.0000000000000000e+00 0.0000000000000000e+00 0.0000000000000000e+00  0.0000000000000000e+00 0.0000000000000000e+00 0.0000000000000000e+00  0.0000000000000000e+00 0.0000000000000000e+00 0.0000000000000000e+00  0.0000000000000000e+00 0.0000000000000000e+00 0.0000000000000000e+00  0.0000000000000000e+00 0.0000000000000000e+00 0.0000000000000000e+00  0.0000000000000000e+00 0.0000000000000000e+00 0.0000000000000000e+00  0.0000000000000000e+00 0.0000000000000000e+00 0.0000000000000000e+00  0.0000000000000000e+00 0.0000000000000000e+00 0.0000000000000000e+00  0.0000000000000000e+00 0.0000000000000000e+00 0.0000000000000000e+00  0.0000000000000000e+00 0.0000000000000000e+00 0.0000000000000000e+00  0.0000000000000000e+00 0.0000000000000000e+00 0.0000000000000000e+00  0.0000000000000000e+00 0.0000000000000000e+00 0.0000000000000000e+00  0.0000000000000000e+00 0.0000000000000000e+00 0.0000000000000000e+00  0.0000000000000000e+00 0.0000000000000000e+00 0.0000000000000000e+00  0.0000000000000000e+00 0.0000000000000000e+00 0.0000000000000000e+00  0.0000000000000000e+00 0.0000000000000000e+00 0.0000000000000000e+00  0.0000000000000000e+00 0.0000000000000000e+00 0.0000000000000000e+00  0.0000000000000000e+00 0.0000000000000000e+00 0.0000000000000000e+00  0.0000000000000000e+00 0.0000000000000000e+00 0.0000000000000000e+00  0.0000000000000000e+00 0.0000000000000000e+00 0.0000000000000000e+00  0.0000000000000000e+00 0.0000000000000000e+00 0.0000000000000000e+00  0.0000000000000000e+00 0.0000000000000000e+00 0.0000000000000000e+00  0.0000000000000000e+00 0.0000000000000000e+00 0.0000000000000000e+00  0.0000000000000000e+00 0.0000000000000000e+00 0.0000000000000000e+00  0.0000000000000000e+00 0.0000000000000000e+00 0.0000000000000000e+00  0.0000000000000000e+00 0.0000000000000000e+00 0.0000000000000000e+00  0.0000000000000000e+00 0.0000000000000000e+00 0.0000000000000000e+00  0.0000000000000000e+00 0.0000000000000000e+00 0.0000000000000000e+00  0.0000000000000000e+00 0.0000000000000000e+00 0.0000000000000000e+00  0.0000000000000000e+00 0.0000000000000000e+00 0.0000000000000000e+00  0.0000000000000000e+00 0.0000000000000000e+00 0.0000000000000000e+00  0.0000000000000000e+00 0.0000000000000000e+00 0.0000000000000000e+00  0.0000000000000000e+00 0.0000000000000000e+00 0.0000000000000000e+00  0.0000000000000000e+00 0.0000000000000000e+00 0.0000000000000000e+00  0.0000000000000000e+00 0.0000000000000000e+00 0.0000000000000000e+00  0.0000000000000000e+00 0.0000000000000000e+00 0.0000000000000000e+00  0.0000000000000000e+00 0.0000000000000000e+00 0.0000000000000000e+00  0.0000000000000000e+00 0.0000000000000000e+00 0.0000000000000000e+00  0.0000000000000000e+00 0.0000000000000000e+00 0.0000000000000000e+00  0.0000000000000000e+00 0.0000000000000000e+00 0.0000000000000000e+00  0.0000000000000000e+00 0.0000000000000000e+00 0.0000000000000000e+00  0.0000000000000000e+00 0.0000000000000000e+00 0.0000000000000000e+00  0.0000000000000000e+00 0.0000000000000000e+00 0.0000000000000000e+00  0.0000000000000000e+00 0.0000000000000000e+00 0.0000000000000000e+00  0.0000000000000000e+00 0.0000000000000000e+00 0.0000000000000000e+00  0.0000000000000000e+00 0.0000000000000000e+00 0.0000000000000000e+00  0.0000000000000000e+00 0.0000000000000000e+00 0.0000000000000000e+00  0.0000000000000000e+00 0.0000000000000000e+00 0.0000000000000000e+00  0.0000000000000000e+00 0.0000000000000000e+00 0.0000000000000000e+00  0.0000000000000000e+00 0.0000000000000000e+00 0.0000000000000000e+00  0.0000000000000000e+00 0.0000000000000000e+00 0.0000000000000000e+00  0.0000000000000000e+00 0.0000000000000000e+00 0.0000000000000000e+00  0.0000000000000000e+00 0.0000000000000000e+00 0.0000000000000000e+00  0.0000000000000000e+00 0.0000000000000000e+00 0.0000000000000000e+00  0.0000000000000000e+00 0.0000000000000000e+00 0.0000000000000000e+00  0.0000000000000000e+00 0.0000000000000000e+00 0.0000000000000000e+00  0.0000000000000000e+00 0.0000000000000000e+00 0.0000000000000000e+00  0.0000000000000000e+00 0.0000000000000000e+00 0.0000000000000000e+00  0.0000000000000000e+00 0.0000000000000000e+00 0.0000000000000000e+00  0.0000000000000000e+00 0.0000000000000000e+00 0.0000000000000000e+00  0.0000000000000000e+00 0.0000000000000000e+00 0.0000000000000000e+00  0.0000000000000000e+00 0.0000000000000000e+00 0.0000000000000000e+00  0.0000000000000000e+00 0.0000000000000000e+00 0.0000000000000000e+00  0.0000000000000000e+00 0.0000000000000000e+00 0.0000000000000000e+00  0.0000000000000000e+00 0.0000000000000000e+00 0.0000000000000000e+00  0.0000000000000000e+00 0.0000000000000000e+00 0.0000000000000000e+00  0.0000000000000000e+00 0.0000000000000000e+00 0.0000000000000000e+00  0.0000000000000000e+00 0.0000000000000000e+00 0.0000000000000000e+00  0.0000000000000000e+00 0.0000000000000000e+00 0.0000000000000000e+00  0.0000000000000000e+00 0.0000000000000000e+00 0.0000000000000000e+00  0.0000000000000000e+00 0.0000000000000000e+00 0.0000000000000000e+00  0.0000000000000000e+00 0.0000000000000000e+00 0.0000000000000000e+00  0.0000000000000000e+00 0.0000000000000000e+00 0.0000000000000000e+00  0.0000000000000000e+00 0.0000000000000000e+00 0.0000000000000000e+00  0.0000000000000000e+00 0.0000000000000000e+00 0.0000000000000000e+00  0.0000000000000000e+00 0.0000000000000000e+00 0.0000000000000000e+00  0.0000000000000000e+00 0.0000000000000000e+00 0.0000000000000000e+00  0.0000000000000000e+00 0.0000000000000000e+00 0.0000000000000000e+00  0.0000000000000000e+00 0.0000000000000000e+00 0.0000000000000000e+00  0.0000000000000000e+00 0.0000000000000000e+00 0.0000000000000000e+00  0.0000000000000000e+00 0.0000000000000000e+00 0.0000000000000000e+00  0.0000000000000000e+00 0.0000000000000000e+00 0.0000000000000000e+00  0.0000000000000000e+00 0.0000000000000000e+00 0.0000000000000000e+00  0.0000000000000000e+00 0.0000000000000000e+00 0.0000000000000000e+00  0.0000000000000000e+00 0.0000000000000000e+00 0.0000000000000000e+00  0.0000000000000000e+00 0.0000000000000000e+00 0.0000000000000000e+00  0.0000000000000000e+00 0.0000000000000000e+00 0.0000000000000000e+00  0.0000000000000000e+00 0.0000000000000000e+00 0.0000000000000000e+00  0.0000000000000000e+00 0.0000000000000000e+00 0.0000000000000000e+00  0.0000000000000000e+00 0.0000000000000000e+00 0.0000000000000000e+00  0.0000000000000000e+00 0.0000000000000000e+00 0.0000000000000000e+00  0.0000000000000000e+00 0.0000000000000000e+00 0.0000000000000000e+00  0.0000000000000000e+00 0.0000000000000000e+00 0.0000000000000000e+00  0.0000000000000000e+00 0.0000000000000000e+00 0.0000000000000000e+00  0.0000000000000000e+00 0.0000000000000000e+00 0.0000000000000000e+00  0.0000000000000000e+00 0.0000000000000000e+00 0.0000000000000000e+00  0.0000000000000000e+00 0.0000000000000000e+00 0.0000000000000000e+00  0.0000000000000000e+00 0.0000000000000000e+00 0.0000000000000000e+00  0.0000000000000000e+00 0.0000000000000000e+00 0.0000000000000000e+00  0.0000000000000000e+00 0.0000000000000000e+00 0.0000000000000000e+00  0.0000000000000000e+00 0.0000000000000000e+00 0.0000000000000000e+00  0.0000000000000000e+00 0.0000000000000000e+00 0.0000000000000000e+00  0.0000000000000000e+00 0.0000000000000000e+00 0.0000000000000000e+00  0.0000000000000000e+00 0.0000000000000000e+00 0.0000000000000000e+00  0.0000000000000000e+00 0.0000000000000000e+00 0.0000000000000000e+00  0.0000000000000000e+00 0.0000000000000000e+00 0.0000000000000000e+00  0.0000000000000000e+00 0.0000000000000000e+00 0.0000000000000000e+00  0.0000000000000000e+00 0.0000000000000000e+00 0.0000000000000000e+00  0.0000000000000000e+00 0.0000000000000000e+00 0.0000000000000000e+00  0.0000000000000000e+00 0.0000000000000000e+00 0.0000000000000000e+00  0.0000000000000000e+00 0.0000000000000000e+00 0.0000000000000000e+00  0.0000000000000000e+00 0.0000000000000000e+00 0.0000000000000000e+00  0.0000000000000000e+00 0.0000000000000000e+00 0.0000000000000000e+00  0.0000000000000000e+00 0.0000000000000000e+00 0.0000000000000000e+00  0.0000000000000000e+00 0.0000000000000000e+00 0.0000000000000000e+00  0.0000000000000000e+00 0.0000000000000000e+00 0.0000000000000000e+00  0.0000000000000000e+00 0.0000000000000000e+00 0.0000000000000000e+00  0.0000000000000000e+00 0.0000000000000000e+00 0.0000000000000000e+00  0.0000000000000000e+00 0.0000000000000000e+00 0.0000000000000000e+00  0.0000000000000000e+00 0.0000000000000000e+00 0.0000000000000000e+00  0.0000000000000000e+00 0.0000000000000000e+00 0.0000000000000000e+00  0.0000000000000000e+00 0.0000000000000000e+00 0.0000000000000000e+00  0.0000000000000000e+00 0.0000000000000000e+00 0.0000000000000000e+00  0.0000000000000000e+00 0.0000000000000000e+00 0.0000000000000000e+00  0.0000000000000000e+00 0.0000000000000000e+00 0.0000000000000000e+00  0.0000000000000000e+00 0.0000000000000000e+00 0.0000000000000000e+00  0.0000000000000000e+00 0.0000000000000000e+00 0.0000000000000000e+00  0.0000000000000000e+00 0.0000000000000000e+00 0.0000000000000000e+00  0.0000000000000000e+00 0.0000000000000000e+00 0.0000000000000000e+00  0.0000000000000000e+00 0.0000000000000000e+00 0.0000000000000000e+00  0.0000000000000000e+00 0.0000000000000000e+00 0.0000000000000000e+00  0.0000000000000000e+00 0.0000000000000000e+00 0.0000000000000000e+00  0.0000000000000000e+00 0.0000000000000000e+00 0.0000000000000000e+00  0.0000000000000000e+00 0.0000000000000000e+00 0.0000000000000000e+00  0.0000000000000000e+00 0.0000000000000000e+00 0.0000000000000000e+00  0.0000000000000000e+00 0.0000000000000000e+00 0.0000000000000000e+00  0.0000000000000000e+00 0.0000000000000000e+00 0.0000000000000000e+00  0.0000000000000000e+00 0.0000000000000000e+00 0.0000000000000000e+00  0.0000000000000000e+00 0.0000000000000000e+00 0.0000000000000000e+00  0.0000000000000000e+00 0.0000000000000000e+00 0.0000000000000000e+00  0.0000000000000000e+00 0.0000000000000000e+00 0.0000000000000000e+00  0.0000000000000000e+00 0.0000000000000000e+00 0.0000000000000000e+00  0.0000000000000000e+00 0.0000000000000000e+00 0.0000000000000000e+00  0.0000000000000000e+00 0.0000000000000000e+00 0.0000000000000000e+00  0.0000000000000000e+00 0.0000000000000000e+00 0.0000000000000000e+00  0.0000000000000000e+00 0.0000000000000000e+00 0.0000000000000000e+00  0.0000000000000000e+00 0.0000000000000000e+00 0.0000000000000000e+00  0.0000000000000000e+00 0.0000000000000000e+00 0.0000000000000000e+00  0.0000000000000000e+00 0.0000000000000000e+00 0.0000000000000000e+00  0.0000000000000000e+00 0.0000000000000000e+00 0.0000000000000000e+00  0.0000000000000000e+00 0.0000000000000000e+00 0.0000000000000000e+00  0.0000000000000000e+00 0.0000000000000000e+00 0.0000000000000000e+00  0.0000000000000000e+00 0.0000000000000000e+00 0.0000000000000000e+00  0.0000000000000000e+00 0.0000000000000000e+00 0.0000000000000000e+00  0.0000000000000000e+00 0.0000000000000000e+00 0.0000000000000000e+00  0.0000000000000000e+00 0.0000000000000000e+00 0.0000000000000000e+00  0.0000000000000000e+00 0.0000000000000000e+00 0.0000000000000000e+00  0.0000000000000000e+00 0.0000000000000000e+00 0.0000000000000000e+00  0.0000000000000000e+00 0.0000000000000000e+00 0.0000000000000000e+00  0.0000000000000000e+00 0.0000000000000000e+00 0.0000000000000000e+00  0.0000000000000000e+00 0.0000000000000000e+00 0.0000000000000000e+00  0.0000000000000000e+00 0.0000000000000000e+00 0.0000000000000000e+00  0.0000000000000000e+00 0.0000000000000000e+00 0.0000000000000000e+00  0.0000000000000000e+00 0.0000000000000000e+00 0.0000000000000000e+00  0.0000000000000000e+00 0.0000000000000000e+00 0.0000000000000000e+00  0.0000000000000000e+00 0.0000000000000000e+00 0.0000000000000000e+00  0.0000000000000000e+00 0.0000000000000000e+00 0.0000000000000000e+00  0.0000000000000000e+00 0.0000000000000000e+00 0.0000000000000000e+00  0.0000000000000000e+00 0.0000000000000000e+00 0.0000000000000000e+00  0.0000000000000000e+00 0.0000000000000000e+00 0.0000000000000000e+00  0.0000000000000000e+00 0.0000000000000000e+00 0.0000000000000000e+00  0.0000000000000000e+00 0.0000000000000000e+00 0.0000000000000000e+00  0.