<?xml version="1.0"?>
<VTKFile type="UnstructuredGrid"  version="0.1"  >
<UnstructuredGrid>
<Piece  NumberOfPoints="19218" NumberOfCells="33095">
<Points>
<DataArray  type="Float64"  NumberOfComponents="3"  format="ascii">0 1 0  0 0 0  1 0 0  1 1 0  0.114927870643792 0.9523809523809523 0  0.1242777615478612 0.9365079365079365 0  0.1111790602244897 0.9206349206349206 0  0.1111111111111111 0.9205938144365108 0  0.1038620496470105 0.9047619047619047 0  0.09523809523809523 0.8902025678378103 0  0.09390983201698423 0.8888888888888888 0  0.07936507936507936 0.8739073552281739 0  0.06606872256103946 0.8888888888888888 0  0.06719617981043774 0.9047619047619047 0  0.06349206349206349 0.9133683084100196 0  0.04761904761904762 0.9160289545562668 0  0.03732018054045592 0.9206349206349206 0  0.03174603174603174 0.9244426187722554 0  0.01909223139203985 0.9206349206349206 0  0.02100967232481595 0.9047619047619047 0  0.03115027703949787 0.8888888888888888 0  0.01587301587301587 0.8758759498188687 0  0.01584658117645333 0.8888888888888888 0  0.01585826572355867 0.9047619047619047 0  0.01586892889831564 0.9206349206349206 0  0.01580548386545644 0.9365079365079365 0  0.0158383053048224 0.9523809523809523 0  0.01583266916063246 0.9682539682539681 0  0.01587301587301587 0.9786851813075156 0  0.02732149409796926 0.9682539682539681 0  0.02728703185876425 0.9523809523809523 0  0.03174603174603174 0.9490416217478163 0  0.03579278626680666 0.9523809523809523 0  0.04761904761904762 0.9630014124136856 0  0.05609260557257024 0.9523809523809523 0  0.05906352421479349 0.9365079365079365 0  0.06349206349206349 0.9302711562037558 0  0.06831170068113439 0.9365079365079365 0  0.0734366522876823 0.9523809523809523 0  0.06609314336687316 0.9682539682539681 0  0.06592347526162202 0.9841269841269841 0  0.07936507936507936 0.9841818972266476 0  0.09523809523809523 0.9841760817087232 0  0.1081084135222236 0.9841269841269841 0  0.1090219897767458 0.9682539682539681 0  0.1111111111111111 0.9658460589423009 0  0.1111111111111111 0.8503140682993557 0  0.1183901937815416 0.8412698412698412 0  0.1111111111111111 0.836996739648349 0  0.1092011510743693 0.8412698412698412 0  0.09523809523809523 0.8640134381791875 0  0.1054608546093668 0.8571428571428571 0  0.09523809523809523 0.8546438009671432 0  0.09192381998343011 0.8571428571428571 0  0.1904761904761905 0.7806977157976571 0  0.1959930983328391 0.7777777777777777 0  0.1948957861110396 0.7619047619047619 0  0.1904761904761905 0.7486440117481108 0  0.1746031746031746 0.7583052801909258 0  0.1673842336947373 0.746031746031746 0  0.1684160492011178 0.7301587301587301 0  0.1746031746031746 0.7254953809763693 0  0.1851990846182633 0.7142857142857142 0  0.1878808237125539 0.6984126984126984 0  0.1746031746031746 0.6927597208390318 0  0.1719009566113754 0.6825396825396826 0  0.1704021592037837 0.6666666666666666 0  0.1587301587301587 0.6509579401860925 0  0.1583930084068769 0.6507936507936507 0  0.1428571428571428 0.644068365469097 0  0.1324147304425219 0.6349206349206349 0  0.126984126984127 0.6301762424564489 0  0.1111111111111111 0.6330215209595331 0  0.1094605016269794 0.6349206349206349 0  0.1111111111111111 0.6355815096657527 0  0.1239475961975093 0.6507936507936507 0  0.1250588261684535 0.6666666666666666 0  0.1261893297504886 0.6825396825396826 0  0.1129924418170401 0.6984126984126984 0  0.1111111111111111 0.7012136086228152 0  0.1009183753650261 0.7142857142857142 0  0.1023458418637615 0.7301587301587301 0  0.09523809523809523 0.7329259318014753 0  0.07936507936507936 0.7381368989609768 0  0.06593509946271144 0.746031746031746 0  0.07465845595069347 0.7619047619047619 0  0.07143086670397679 0.7777777777777777 0  0.07936507936507936 0.792423993546763 0  0.09523809523809523 0.7891669517960229 0  0.1001631711873915 0.7777777777777777 0  0.1111111111111111 0.769069976950019 0  0.1210437586422297 0.7619047619047619 0  0.126984126984127 0.7560817844123546 0  0.1303271784416158 0.7619047619047619 0  0.126984126984127 0.7646702652218678 0  0.1158742562442055 0.7777777777777777 0  0.1111111111111111 0.7864240885307148 0  0.09801347285867208 0.7936507936507936 0  0.09523809523809523 0.796052722720251 0  0.07936507936507936 0.795546934384993 0  0.07568232499976364 0.8095238095238095 0  0.07936507936507936 0.8156167770603071 0  0.09523809523809523 0.8160143574925984 0  0.1111111111111111 0.8178031497628858 0  0.1238683332153979 0.8253968253968254 0  0.126984126984127 0.8311051024829879 0  0.1428571428571428 0.8372211063439634 0  0.1486109309279743 0.8412698412698412 0  0.1428571428571428 0.8509464939640076 0  0.1414598424190645 0.8571428571428571 0  0.1428571428571428 0.8604916802088793 0  0.1587301587301587 0.8707580082301567 0  0.1746031746031746 0.8613585544583452 0  0.1904761904761905 0.8630868108488563 0  0.1958534183106972 0.8571428571428571 0  0.1904761904761905 0.8505684904390095 0  0.1821540396068969 0.8412698412698412 0  0.1746031746031746 0.8267138265495155 0  0.1733955527187963 0.8253968253968254 0  0.1746031746031746 0.8225378398684738 0  0.1796686543231586 0.8095238095238095 0  0.1746031746031746 0.8039966858434975 0  0.1658416334512415 0.7936507936507936 0  0.1746031746031746 0.7801970515045434 0  0.1904761904761905 0.8262017571643749 0  0.191160600945736 0.8253968253968254 0  0.1904761904761905 0.8244000797953961 0  0.1842189700180061 0.8253968253968254 0  0.2405578410482172 0.746031746031746 0  0.2522771009921847 0.7301587301587301 0  0.2486365246772024 0.7142857142857142 0  0.2459144044850428 0.6984126984126984 0  0.2380952380952381 0.6917902207787647 0  0.2314967790346928 0.6984126984126984 0  0.2222222222222222 0.7116547628716898 0  0.2145520881023155 0.6984126984126984 0  0.2186153188527558 0.6825396825396826 0  0.2088842649465741 0.6666666666666666 0  0.2063492063492063 0.6625340328579098 0  0.1943098682996874 0.6507936507936507 0  0.1925892184028924 0.6349206349206349 0  0.1904761904761905 0.6267093496120134 0  0.1855246243075961 0.6190476190476191 0  0.1746031746031746 0.603995889672938 0  0.1733058058141346 0.6031746031746031 0  0.1746031746031746 0.6018074021309041 0  0.176985081544709 0.6031746031746031 0  0.1904761904761905 0.6096087309502044 0  0.2007286162861132 0.6031746031746031 0  0.19737467661469 0.5873015873015872 0  0.1904761904761905 0.5849977448493605 0  0.1746031746031746 0.579845226292254 0  0.1692744849089972 0.5714285714285714 0  0.1587301587301587 0.561870517831794 0  0.1428571428571428 0.5699694248412582 0  0.1278652136828386 0.5714285714285714 0  0.1352717047682279 0.5873015873015872 0  0.1428571428571428 0.5977351824750248 0  0.1499688521998086 0.6031746031746031 0  0.1428571428571428 0.6078962645227616 0  0.1368185873503302 0.6190476190476191 0  0.1428571428571428 0.6258452328979918 0  0.1502368822416426 0.6349206349206349 0  0.1587301587301587 0.6505766149330395 0  0.1590664142448613 0.6507936507936507 0  0.1746031746031746 0.6598908907941762 0  0.1840316488982926 0.6666666666666666 0  0.1773993688451309 0.6825396825396826 0  0.1904761904761905 0.6980540236951391 0  0.1912480213227365 0.6984126984126984 0  0.2014007451763511 0.7142857142857142 0  0.194249428079951 0.7301587301587301 0  0.2063492063492063 0.7380335472528282 0  0.2139538357718797 0.746031746031746 0  0.2222222222222222 0.7518720429586498 0  0.2320999340733512 0.7619047619047619 0  0.2222222222222222 0.7750854619991414 0  0.2184871561872803 0.7777777777777777 0  0.2222222222222222 0.7815969760610129 0  0.2359908287529306 0.7936507936507936 0  0.2222222222222222 0.8085163635607411 0  0.2202644475060929 0.8095238095238095 0  0.2222222222222222 0.810078049516525 0  0.2321535529289996 0.8253968253968254 0  0.2380952380952381 0.833108250209929 0  0.2455181282860233 0.8253968253968254 0  0.2428783880384105 0.8095238095238095 0  0.2398080275869215 0.7936507936507936 0  0.2425034665489314 0.7777777777777777 0  0.2421240022310806 0.7619047619047619 0  0.2380952380952381 0.5969284423217239 0  0.2486504545758831 0.5873015873015872 0  0.2380952380952381 0.5804500388555125 0  0.2280895896534408 0.5714285714285714 0  0.2380952380952381 0.5579691201989972 0  0.2404744242760746 0.5555555555555556 0  0.2380952380952381 0.5538948962067364 0  0.2222222222222222 0.5439452621504623 0  0.214028502844952 0.5555555555555556 0  0.2063492063492063 0.5695592153489345 0  0.2043070372974665 0.5714285714285714 0  0.2063492063492063 0.5777881039531486 0  0.2117876959906869 0.5873015873015872 0  0.210404806113185 0.6031746031746031 0  0.2222222222222222 0.6096560441778616 0  0.2297120064878507 0.6031746031746031 0  0.2422079813969928 0.4761904761904762 0  0.2460243261964043 0.4603174603174603 0  0.2380952380952381 0.4543264664676772 0  0.2234731407433571 0.4603174603174603 0  0.2311944620285495 0.4761904761904762 0  0.2380952380952381 0.4777093870189842 0  0.253968253968254 0.3449024175980663 0  0.2607550977150862 0.3333333333333333 0  0.253968253968254 0.3264044963851729 0  0.2401962003788906 0.3333333333333333 0  0.253968253968254 0.204695893273569 0  0.26190647855595 0.1904761904761905 0  0.253968253968254 0.1859137149750064 0  0.2505085644299351 0.1904761904761905 0  0.2707701208210026 0.03174603174603174 0  0.2817452847633389 0.01587301587301587 0  0.2698412698412698 0.01581260595917192 0  0.2546070780919799 0.01587301587301587 0  0.253968253968254 0.02440198753356732 0  0.2533913364939331 0.03174603174603174 0  0.2533316092186223 0.04761904761904762 0  0.253968253968254 0.04786346531519173 0  0.2544059635330193 0.04761904761904762 0  0.2698412698412698 0.03189948359235391 0  0.2063492063492063 0.4960248109971494 0  0.2082584421075897 0.492063492063492 0  0.2063492063492063 0.4912213560099991 0  0.2044498890618389 0.492063492063492 0  0.3650793650793651 0.6037026597389289 0  0.3658268868120477 0.6031746031746031 0  0.3650793650793651 0.6022811637487433 0  0.3492063492063492 0.6031435155794703 0  0.3333333333333333 0.5914252502218184 0  0.3282476766140588 0.5873015873015872 0  0.3210740631963072 0.5714285714285714 0  0.31746031746
[...]
<PointData  Vectors="f_32-0"> 
<DataArray  type="Float64"  Name="f_32-0"  NumberOfComponents="3" format="ascii">0.0000000000000000e+00 0.0000000000000000e+00 0.0000000000000000e+00  0.0000000000000000e+00 0.0000000000000000e+00 0.0000000000000000e+00  0.0000000000000000e+00 0.0000000000000000e+00 0.0000000000000000e+00  0.0000000000000000e+00 0.0000000000000000e+00 0.0000000000000000e+00  0.0000000000000000e+00 0.0000000000000000e+00 0.0000000000000000e+00  0.0000000000000000e+00 0.0000000000000000e+00 0.0000000000000000e+00  0.0000000000000000e+00 0.0000000000000000e+00 0.0000000000000000e+00  0.0000000000000000e+00 0.0000000000000000e+00 0.0000000000000000e+00  0.0000000000000000e+00 0.0000000000000000e+00 0.0000000000000000e+00  0.0000000000000000e+00 0.0000000000000000e+00 0.0000000000000000e+00  0.0000000000000000e+00 0.0000000000000000e+00 0.0000000000000000e+00  0.0000000000000000e+00 0.0000000000000000e+00 0.0000000000000000e+00  0.0000000000000000e+00 0.0000000000000000e+00 0.0000000000000000e+00  0.0000000000000000e+00 0.0000000000000000e+00 0.0000000000000000e+00  0.0000000000000000e+00 0.0000000000000000e+00 0.0000000000000000e+00  0.0000000000000000e+00 0.0000000000000000e+00 0.0000000000000000e+00  0.0000000000000000e+00 0.0000000000000000e+00 0.0000000000000000e+00  0.0000000000000000e+00 0.0000000000000000e+00 0.0000000000000000e+00  0.0000000000000000e+00 0.0000000000000000e+00 0.0000000000000000e+00  0.0000000000000000e+00 0.0000000000000000e+00 0.0000000000000000e+00  0.0000000000000000e+00 0.0000000000000000e+00 0.0000000000000000e+00  0.0000000000000000e+00 0.0000000000000000e+00 0.0000000000000000e+00  0.0000000000000000e+00 0.0000000000000000e+00 0.0000000000000000e+00  0.0000000000000000e+00 0.0000000000000000e+00 0.0000000000000000e+00  0.0000000000000000e+00 0.0000000000000000e+00 0.0000000000000000e+00  0.0000000000000000e+00 0.0000000000000000e+00 0.0000000000000000e+00  0.0000000000000000e+00 0.0000000000000000e+00 0.0000000000000000e+00  0.0000000000000000e+00 0.0000000000000000e+00 0.0000000000000000e+00  0.0000000000000000e+00 0.0000000000000000e+00 0.0000000000000000e+00  0.0000000000000000e+00 0.0000000000000000e+00 0.0000000000000000e+00  0.0000000000000000e+00 0.0000000000000000e+00 0.0000000000000000e+00  0.0000000000000000e+00 0.0000000000000000e+00 0.0000000000000000e+00  0.0000000000000000e+00 0.0000000000000000e+00 0.0000000000000000e+00  0.0000000000000000e+00 0.0000000000000000e+00 0.0000000000000000e+00  0.0000000000000000e+00 0.0000000000000000e+00 0.0000000000000000e+00  0.0000000000000000e+00 0.0000000000000000e+00 0.0000000000000000e+00  0.0000000000000000e+00 0.0000000000000000e+00 0.0000000000000000e+00  0.0000000000000000e+00 0.0000000000000000e+00 0.0000000000000000e+00  0.0000000000000000e+00 0.0000000000000000e+00 0.0000000000000000e+00  0.0000000000000000e+00 0.0000000000000000e+00 0.0000000000000000e+00  0.0000000000000000e+00 0.0000000000000000e+00 0.0000000000000000e+00  0.0000000000000000e+00 0.0000000000000000e+00 0.0000000000000000e+00  0.0000000000000000e+00 0.0000000000000000e+00 0.0000000000000000e+00  0.0000000000000000e+00 0.0000000000000000e+00 0.0000000000000000e+00  0.0000000000000000e+00 0.0000000000000000e+00 0.0000000000000000e+00  0.0000000000000000e+00 0.0000000000000000e+00 0.0000000000000000e+00  0.0000000000000000e+00 0.0000000000000000e+00 0.0000000000000000e+00  0.0000000000000000e+00 0.0000000000000000e+00 0.0000000000000000e+00  0.0000000000000000e+00 0.0000000000000000e+00 0.0000000000000000e+00  0.0000000000000000e+00 0.0000000000000000e+00 0.0000000000000000e+00  0.0000000000000000e+00 0.0000000000000000e+00 0.0000000000000000e+00  0.0000000000000000e+00 0.0000000000000000e+00 0.0000000000000000e+00  0.0000000000000000e+00 0.0000000000000000e+00 0.0000000000000000e+00  0.0000000000000000e+00 0.0000000000000000e+00 0.0000000000000000e+00  0.0000000000000000e+00 0.0000000000000000e+00 0.0000000000000000e+00  0.0000000000000000e+00 0.0000000000000000e+00 0.0000000000000000e+00  0.0000000000000000e+00 0.0000000000000000e+00 0.0000000000000000e+00  0.0000000000000000e+00 0.0000000000000000e+00 0.0000000000000000e+00  0.0000000000000000e+00 0.0000000000000000e+00 0.0000000000000000e+00  0.0000000000000000e+00 0.0000000000000000e+00 0.0000000000000000e+00  0.0000000000000000e+00 0.0000000000000000e+00 0.0000000000000000e+00  0.0000000000000000e+00 0.0000000000000000e+00 0.0000000000000000e+00  0.0000000000000000e+00 0.0000000000000000e+00 0.0000000000000000e+00  0.0000000000000000e+00 0.0000000000000000e+00 0.0000000000000000e+00  0.0000000000000000e+00 0.0000000000000000e+00 0.0000000000000000e+00  0.0000000000000000e+00 0.0000000000000000e+00 0.0000000000000000e+00  0.0000000000000000e+00 0.0000000000000000e+00 0.0000000000000000e+00  0.0000000000000000e+00 0.0000000000000000e+00 0.0000000000000000e+00  0.0000000000000000e+00 0.0000000000000000e+00 0.0000000000000000e+00  0.0000000000000000e+00 0.0000000000000000e+00 0.0000000000000000e+00  0.0000000000000000e+00 0.0000000000000000e+00 0.0000000000000000e+00  0.0000000000000000e+00 0.0000000000000000e+00 0.0000000000000000e+00  0.0000000000000000e+00 0.0000000000000000e+00 0.0000000000000000e+00  0.0000000000000000e+00 0.0000000000000000e+00 0.0000000000000000e+00  0.0000000000000000e+00 0.0000000000000000e+00 0.0000000000000000e+00  0.0000000000000000e+00 0.0000000000000000e+00 0.0000000000000000e+00  0.0000000000000000e+00 0.0000000000000000e+00 0.0000000000000000e+00  0.0000000000000000e+00 0.0000000000000000e+00 0.0000000000000000e+00  0.0000000000000000e+00 0.0000000000000000e+00 0.0000000000000000e+00  0.0000000000000000e+00 0.0000000000000000e+00 0.0000000000000000e+00  0.0000000000000000e+00 0.0000000000000000e+00 0.0000000000000000e+00  0.0000000000000000e+00 0.0000000000000000e+00 0.0000000000000000e+00  0.0000000000000000e+00 0.0000000000000000e+00 0.0000000000000000e+00  0.0000000000000000e+00 0.0000000000000000e+00 0.0000000000000000e+00  0.0000000000000000e+00 0.0000000000000000e+00 0.0000000000000000e+00  0.0000000000000000e+00 0.0000000000000000e+00 0.0000000000000000e+00  0.0000000000000000e+00 0.0000000000000000e+00 0.0000000000000000e+00  0.0000000000000000e+00 0.0000000000000000e+00 0.0000000000000000e+00  0.0000000000000000e+00 0.0000000000000000e+00 0.0000000000000000e+00  0.0000000000000000e+00 0.0000000000000000e+00 0.0000000000000000e+00  0.0000000000000000e+00 0.0000000000000000e+00 0.0000000000000000e+00  0.0000000000000000e+00 0.0000000000000000e+00 0.0000000000000000e+00  0.0000000000000000e+00 0.0000000000000000e+00 0.0000000000000000e+00  0.0000000000000000e+00 0.0000000000000000e+00 0.0000000000000000e+00  0.0000000000000000e+00 0.0000000000000000e+00 0.0000000000000000e+00  0.0000000000000000e+00 0.0000000000000000e+00 0.0000000000000000e+00  0.0000000000000000e+00 0.0000000000000000e+00 0.0000000000000000e+00  0.0000000000000000e+00 0.0000000000000000e+00 0.0000000000000000e+00  0.0000000000000000e+00 0.0000000000000000e+00 0.0000000000000000e+00  0.0000000000000000e+00 0.0000000000000000e+00 0.0000000000000000e+00  0.0000000000000000e+00 0.0000000000000000e+00 0.0000000000000000e+00  0.0000000000000000e+00 0.0000000000000000e+00 0.0000000000000000e+00  0.0000000000000000e+00 0.0000000000000000e+00 0.0000000000000000e+00  0.0000000000000000e+00 0.0000000000000000e+00 0.0000000000000000e+00  0.0000000000000000e+00 0.0000000000000000e+00 0.0000000000000000e+00  0.0000000000000000e+00 0.0000000000000000e+00 0.0000000000000000e+00  0.0000000000000000e+00 0.0000000000000000e+00 0.0000000000000000e+00  0.0000000000000000e+00 0.0000000000000000e+00 0.0000000000000000e+00  0.0000000000000000e+00 0.0000000000000000e+00 0.0000000000000000e+00  0.0000000000000000e+00 0.0000000000000000e+00 0.0000000000000000e+00  0.0000000000000000e+00 0.0000000000000000e+00 0.0000000000000000e+00  0.0000000000000000e+00 0.0000000000000000e+00 0.0000000000000000e+00  0.0000000000000000e+00 0.0000000000000000e+00 0.0000000000000000e+00  0.0000000000000000e+00 0.0000000000000000e+00 0.0000000000000000e+00  0.0000000000000000e+00 0.0000000000000000e+00 0.0000000000000000e+00  0.0000000000000000e+00 0.0000000000000000e+00 0.0000000000000000e+00  0.0000000000000000e+00 0.0000000000000000e+00 0.0000000000000000e+00  0.0000000000000000e+00 0.0000000000000000e+00 0.0000000000000000e+00  0.0000000000000000e+00 0.0000000000000000e+00 0.0000000000000000e+00  0.0000000000000000e+00 0.0000000000000000e+00 0.0000000000000000e+00  0.0000000000000000e+00 0.0000000000000000e+00 0.0000000000000000e+00  0.0000000000000000e+00 0.0000000000000000e+00 0.0000000000000000e+00  0.0000000000000000e+00 0.0000000000000000e+00 0.0000000000000000e+00  0.0000000000000000e+00 0.0000000000000000e+00 0.0000000000000000e+00  0.0000000000000000e+00 0.0000000000000000e+00 0.0000000000000000e+00  0.0000000000000000e+00 0.0000000000000000e+00 0.0000000000000000e+00  0.0000000000000000e+00 0.0000000000000000e+00 0.0000000000000000e+00  0.0000000000000000e+00 0.0000000000000000e+00 0.0000000000000000e+00  0.0000000000000000e+00 0.0000000000000000e+00 0.0000000000000000e+00  0.0000000000000000e+00 0.0000000000000000e+00 0.0000000000000000e+00  0.0000000000000000e+00 0.0000000000000000e+00 0.0000000000000000e+00  0.0000000000000000e+00 0.0000000000000000e+00 0.0000000000000000e+00  0.0000000000000000e+00 0.0000000000000000e+00 0.0000000000000000e+00  0.0000000000000000e+00 0.0000000000000000e+00 0.0000000000000000e+00  0.0000000000000000e+00 0.0000000000000000e+00 0.0000000000000000e+00  0.0000000000000000e+00 0.0000000000000000e+00 0.0000000000000000e+00  0.0000000000000000e+00 0.0000000000000000e+00 0.0000000000000000e+00  0.0000000000000000e+00 0.0000000000000000e+00 0.0000000000000000e+00  0.0000000000000000e+00 0.0000000000000000e+00 0.0000000000000000e+00  0.0000000000000000e+00 0.0000000000000000e+00 0.0000000000000000e+00  0.0000000000000000e+00 0.0000000000000000e+00 0.0000000000000000e+00  0.0000000000000000e+00 0.0000000000000000e+00 0.0000000000000000e+00  0.0000000000000000e+00 0.0000000000000000e+00 0.0000000000000000e+00  0.0000000000000000e+00 0.0000000000000000e+00 0.0000000000000000e+00  0.0000000000000000e+00 0.0000000000000000e+00 0.0000000000000000e+00  0.0000000000000000e+00 0.0000000000000000e+00 0.0000000000000000e+00  0.0000000000000000e+00 0.0000000000000000e+00 0.0000000000000000e+00  0.0000000000000000e+00 0.0000000000000000e+00 0.0000000000000000e+00  0.0000000000000000e+00 0.0000000000000000e+00 0.0000000000000000e+00  0.0000000000000000e+00 0.0000000000000000e+00 0.0000000000000000e+00  0.0000000000000000e+00 0.0000000000000000e+00 0.0000000000000000e+00  0.0000000000000000e+00 0.0000000000000000e+00 0.0000000000000000e+00  0.0000000000000000e+00 0.0000000000000000e+00 0.0000000000000000e+00  0.0000000000000000e+00 0.0000000000000000e+00 0.0000000000000000e+00  0.0000000000000000e+00 0.0000000000000000e+00 0.0000000000000000e+00  0.0000000000000000e+00 0.0000000000000000e+00 0.0000000000000000e+00  0.0000000000000000e+00 0.0000000000000000e+00 0.0000000000000000e+00  0.0000000000000000e+00 0.0000000000000000e+00 0.0000000000000000e+00  0.0000000000000000e+00 0.0000000000000000e+00 0.0000000000000000e+00  0.0000000000000000e+00 0.0000000000000000e+00 0.0000000000000000e+00  0.0000000000000000e+00 0.0000000000000000e+00 0.0000000000000000e+00  0.0000000000000000e+00 0.0000000000000000e+00 0.0000000000000000e+00  0.0000000000000000e+00 0.0000000000000000e+00 0.0000000000000000e+00  0.0000000000000000e+00 0.0000000000000000e+00 0.0000000000000000e+00  0.0000000000000000e+00 0.0000000000000000e+00 0.0000000000000000e+00  0.0000000000000000e+00 0.0000000000000000e+00 0.0000000000000000e+00  0.0000000000000000e+00 0.0000000000000000e+00 0.0000000000000000e+00  0.0000000000000000e+00 0.0000000000000000e+00 0.0000000000000000e+00  0.0000000000000000e+00 0.0000000000000000e+00 0.0000000000000000e+00  0.0000000000000000e+00 0.0000000000000000e+00 0.0000000000000000e+00  0.0000000000000000e+00 0.0000000000000000e+00 0.0000000000000000e+00  0.0000000000000000e+00 0.0000000000000000e+00 0.0000000000000000e+00  0.0000000000000000e+00 0.0000000000000000e+00 0.0000000000000000e+00  0.0000000000000000e+00 0.0000000000000000e+00 0.0000000000000000e+00  0.0000000000000000e+00 0.0000000000000000e+00 0.0000000000000000e+00  0.0000000000000000e+00 0.0000000000000000e+00 0.0000000000000000e+00  0.0000000000000000e+00 0.0000000000000000e+00 0.0000000000000000e+00  0.0000000000000000e+00 0.0000000000000000e+00 0.0000000000000000e+00  0.0000000000000000e+00 0.0000000000000000e+00 0.0000000000000000e+00  0.0000000000000000e+00 0.0000000000000000e+00 0.0000000000000000e+00  0.0000000000000000e+00 0.0000000000000000e+00 0.0000000000000000e+00  0.0000000000000000e+00 0.0000000000000000e+00 0.0000000000000000e+00  0.0000000000000000e+00 0.0000000000000000e+00 0.0000000000000000e+00  0.0000000000000000e+00 0.0000000000000000e+00 0.0000000000000000e+00  0.0000000000000000e+00 0.0000000000000000e+00 0.0000000000000000e+00  0.0000000000000000e+00 0.0000000000000000e+00 0.0000000000000000e+00  0.0000000000000000e+00 0.0000000000000000e+00 0.0000000000000000e+00  0.0000000000000000e+00 0.0000000000000000e+00 0.0000000000000000e+00  0.0000000000000000e+00 0.0000000000000000e+00 0.0000000000000000e+00  0.0000000000000000e+00 0.0000000000000000e+00 0.0000000000000000e+00  0.0000000000000000e+00 0.0000000000000000e+00 0.0000000000000000e+00  0.0000000000000000e+00 0.0000000000000000e+00 0.0000000000000000e+00  0.0000000000000000e+00 0.0000000000000000e+00 0.0000000000000000e+00  0.0000000000000000e+00 0.0000000000000000e+00 0.0000000000000000e+00  0.0000000000000000e+00 0.0000000000000000e+00 0.0000000000000000e+00  0.0000000000000000e+00 0.0000000000000000e+00 0.0000000000000000e+00  0.0000000000000000e+00 0.0000000000000000e+00 0.0000000000000000e+00  0.0000000000000000e+00 0.0000000000000000e+00 0.0000000000000000e+00  0.0000000000000000e+00 0.0000000000000000e+00 0.0000000000000000e+00  0.0000000000000000e+00 0.0000000000000000e+00 0.0000000000000000e+00  0.0000000000000000e+00 0.0000000000000000e+00 0.0000000000000000e+00  0.0000000000000000e+00 0.0000000000000000e+00 0.0000000000000000e+00  0.0000000000000000e+00 0.0000000000000000e+00 0.0000000000000000e+00  0.0000000000000000e+00 0.0000000000000000e+00 0.0000000000000000e+00  0.0000000000000000e+00 0.0000000000000000e+00 0.0000000000000000e+00  0.0000000000000000e+00 0.0000000000000000e+00 0.0000000000000000e+00  0.0000000000000000e+00 0.0000000000000000e+00 0.0000000000000000e+00  0.0000000000000000e+00 0.0000000000000000e+00 0.0000000000000000e+00  0.0000000000000000e+00 0.0000000000000000e+00 0.0000000000000000e+00  0.0000000000000000e+00 0.0000000000000000e+00 0.0000000000000000e+00  0.0000000000000000e+00 0.0000000000000000e+00 0.0000000000000000e+00  0.0000000000000000e+00 0.0000000000000000e+00 0.0000000000000000e+00  0.0000000000000000e+00 0.0000000000000000e+00 0.0000000000000000e+00  0.0000000000000000e+00 0.0000000000000000e+00 0.0000000000000000e+00  0.0000000000000000e+00 0.0000000000000000e+00 0.0000000000000000e+00  0.0000000000000000e+00 0.0000000000000000e+00 0.0000000000000000e+00  0.0000000000000000e+00 0.0000000000000000e+00 0.0000000000000000e+00  0.0000000000000000e+00 0.0000000000000000e+00 0.0000000000000000e+00  0.0000000000000000e+00 0.0000000000000000e+00 0.0000000000000000e+00  0.0000000000000000e+00 0.0000000000000000e+00 0.0000000000000000e+00  0.0000000000000000e+00 0.0000000000000000e+00 0.0000000000000000e+00  0.0000000000000000e+00 0.0000000000000000e+00 0.0000000000000000e+00  0.0000000000000000e+00 0.0000000000000000e+00 0.0000000000000000e+00  0.0000000000000000e+00 0.0000000000000000e+00 0.0000000000000000e+00  0.0000000000000000e+00 0.0000000000000000e+00 0.0000000000000000e+00  0.0000000000000000e+00 0.0000000000000000e+00 0.0000000000000000e+00  0.0000000000000000e+00 0.0000000000000000e+00 0.0000000000000000e+00  0.0000000000000000e+00 0.0000000000000000e+00 0.0000000000000000e+00  0.0000000000000000e+00 0.0000000000000000e+00 0.0000000000000000e+00  0.0000000000000000e+00 0.0000000000000000e+00 0.0000000000000000e+00  0.0000000000000000e+00 0.0000000000000000e+00 0.0000000000000000e+00  0.0000000000000000e+00 0.0000000000000000e+00 0.0000000000000000e+00  0.0000000000000000e+00 0.0000000000000000e+00 0.0000000000000000e+00  0.0000000000000000e+00 0.0000000000000000e+00 0.0000000000000000e+00  0.0000000000000000e+00 0.0000000000000000e+00 0.0000000000000000e+00  0.0000000000000000e+00 0.0000000000000000e+00 0.0000000000000000e+00  0.0000000000000000e+00 0.0000000000000000e+00 0.0000000000000000e+00  0.0000000000000000e+00 0.0000000000000000e+00 0.0000000000000000e+00  0.0000000000000000e+00 0.0000000000000000e+00 0.0000000000000000e+00  0.0000000000000000e+00 0.0000000000000000e+00 0.0000000000000000e+00  0.0000000000000000e+00 0.0000000000000000e+00 0.0000000000000000e+00  0.0000000000000000e+00 0.0000000000000000e+00 0.0000000000000000e+00  0.0000000000000000e+00 0.0000000000000000e+00 0.0000000000000000e+00  0.0000000000000000e+00 0.0000000000000000e+00 0.0000000000000000e+00  0.0000000000000000e+00 0.0000000000000000e+00 0.0000000000000000e+00  0.0000000000000000e+00 0.0000000000000000e+00 0.0000000000000000e+00  0.0000000000000000e+00 0.0000000000000000e+00 0.0000000000000000e+00  0.0000000000000000e+00 0.0000000000000000e+00 0.0000000000000000e+00  0.0000000000000000e+00 0.0000000000000000e+00 0.0000000000000000e+00  0.0000000000000000e+00 0.0000000000000000e+00 0.0000000000000000e+00  0.0000000000000000e+00 0.0000000000000000e+00 0.0000000000000000e+00  0.0000000000000000e+00 0.0000000000000000e+00 0.0000000000000000e+00  0.0000000000000000e+00 0.0000000000000000e+00 0.0000000000000000e+00  0.0000000000000000e+00 0.0000000000000000e+00 0.0000000000000000e+00  0.0000000000000000e+00 0.0000000000000000e+00 0.0000000000000000e+00  0.0000000000000000e+00 0.0000000000000000e+00 0.0000000000000000e+00  0.0000000000000000e+00 0.0000000000000000e+00 0.0000000000000000e+00  0.0000000000000000e+00 0.0000000000000000e+00 0.0000000000000000e+00  0.0000000000000000e+00 0.0000000000000000e+00 0.0000000000000000e+00  0.0000000000000000e+00 0.0000000000000000e+00 0.0000000000000000e+00  0.0000000000000000e+00 0.0000000000000000e+00 0.0000000000000000e+00  0.0000000000000000e+00 0.0000000000000000e+00 0.0000000000000000e+00  0.0000000000000000e+00 0.0000000000000000e+00 0.0000000000000000e+00  0.0000000000000000e+00 0.0000000000000000e+00 0.0000000000000000e+00  0.0000000000000000e+00 0.0000000000000000e+00 0.0000000000000000e+00  0.0000000000000000e+00 0.0000000000000000e+00 0.0000000000000000e+00  0.0000000000000000e+00 0.0000000000000000e+00 0.0000000000000000e+00  0.0000000000000000e+00 0.0000000000000000e+00 0.0000000000000000e+00  0.0000000000000000e+00 0.0000000000000000e+00 0.0000000000000000e+00  0.0000000000000000e+00 0.0000000000000000e+00 0.0000000000000000e+00  0.0000000000000000e+00 0.0000000000000000e+00 0.0000000000000000e+00  0.0000000000000000e+00 0.0000000000000000e+00 0.0000000000000000e+00  0.0000000000000000e+00 0.0000000000000000e+00 0.0000000000000000e+00  0.0000000000000000e+00 0.0000000000000000e+00 0.0000000000000000e+00  0.0000000000000000e+00 0.0000000000000000e+00 0.0000000000000000e+00  0.0000000000000000e+00 0.0000000000000000e+00 0.0000000000000000e+00  0.0000000000000000e+00 0.0000000000000000e+00 0.0000000000000000e+00  0.0000000000000000e+00 0.0000000000000000e+00 0.0000000000000000e+00  0.0000000000000000e+00 0.0000000000000000e+00 0.0000000000000000e+00  0.0000000000000000e+00 0.0000000000000000e+00 0.0000000000000000e+00  0.0000000000000000e+00 0.0000000000000000e+00 0.0000000000000000e+00  0.0000000000000000e+00 0.0000000000000000e+00 0.0000000000000000e+00  0.0000000000000000e+00 0.0000000000000000e+00 0.0000000000000000e+00  0.0000000000000000e+00 0.0000000000000000e+00 0.0000000000000000e+00  0.000000