<?xml version="1.0"?>
<VTKFile type="UnstructuredGrid"  version="0.1"  >
<UnstructuredGrid>
<Piece  NumberOfPoints="1089" NumberOfCells="2048">
<Points>
<DataArray  type="Float64"  NumberOfComponents="3"  format="ascii">0 0 0  0.03125 0 0  0.0625 0 0  0.09375 0 0  0.125 0 0  0.15625 0 0  0.1875 0 0  0.21875 0 0  0.25 0 0  0.28125 0 0  0.3125 0 0  0.34375 0 0  0.375 0 0  0.40625 0 0  0.4375 0 0  0.46875 0 0  0.5 0 0  0.53125 0 0  0.5625 0 0  0.59375 0 0  0.625 0 0  0.65625 0 0  0.6875 0 0  0.71875 0 0  0.75 0 0  0.78125 0 0  0.8125 0 0  0.84375 0 0  0.875 0 0  0.90625 0 0  0.9375 0 0  0.96875 0 0  1 0 0  0 0.03125 0  0.03125 0.03125 0  0.0625 0.03125 0  0.09375 0.03125 0  0.125 0.03125 0  0.15625 0.03125 0  0.1875 0.03125 0  0.21875 0.03125 0  0.25 0.03125 0  0.28125 0.03125 0  0.3125 0.03125 0  0.34375 0.03125 0  0.375 0.03125 0  0.40625 0.03125 0  0.4375 0.03125 0  0.46875 0.03125 0  0.5 0.03125 0  0.53125 0.03125 0  0.5625 0.03125 0  0.59375 0.03125 0  0.625 0.03125 0  0.65625 0.03125 0  0.6875 0.03125 0  0.71875 0.03125 0  0.75 0.03125 0  0.78125 0.03125 0  0.8125 0.03125 0  0.84375 0.03125 0  0.875 0.03125 0  0.90625 0.03125 0  0.9375 0.03125 0  0.96875 0.03125 0  1 0.03125 0  0 0.0625 0  0.03125 0.0625 0  0.0625 0.0625 0  0.09375 0.0625 0  0.125 0.0625 0  0.15625 0.0625 0  0.1875 0.0625 0  0.21875 0.0625 0  0.25 0.0625 0  0.28125 0.0625 0  0.3125 0.0625 0  0.34375 0.0625 0  0.375 0.0625 0  0.40625 0.0625 0  0.4375 0.0625 0  0.46875 0.0625 0  0.5 0.0625 0  0.53125 0.0625 0  0.5625 0.0625 0  0.59375 0.0625 0  0.625 0.0625 0  0.65625 0.0625 0  0.6875 0.0625 0  0.71875 0.0625 0  0.75 0.0625 0  0.78125 0.0625 0  0.8125 0.0625 0  0.84375 0.0625 0  0.875 0.0625 0  0.90625 0.0625 0  0.9375 0.0625 0  0.96875 0.0625 0  1 0.0625 0  0 0.09375 0  0.03125 0.09375 0  0.0625 0.09375 0  0.09375 0.09375 0  0.125 0.09375 0  0.15625 0.09375 0  0.1875 0.09375 0  0.21875 0.09375 0  0.25 0.09375 0  0.28125 0.09375 0  0.3125 0.09375 0  0.34375 0.09375 0  0.375 0.09375 0  0.40625 0.09375 0  0.4375 0.09375 0  0.46875 0.09375 0  0.5 0.09375 0  0.53125 0.09375 0  0.5625 0.09375 0  0.59375 0.09375 0  0.625 0.09375 0  0.65625 0.09375 0  0.6875 0.09375 0  0.71875 0.09375 0  0.75 0.09375 0  0.78125 0.09375 0  0.8125 0.09375 0  0.84375 0.09375 0  0.875 0.09375 0  0.90625 0.09375 0  0.9375 0.09375 0  0.96875 0.09375 0  1 0.09375 0  0 0.125 0  0.03125 0.125 0  0.0625 0.125 0  0.09375 0.125 0  0.125 0.125 0  0.15625 0.125 0  0.1875 0.125 0  0.21875 0.125 0  0.25 0.125 0  0.28125 0.125 0  0.3125 0.125 0  0.34375 0.125 0  0.375 0.125 0  0.40625 0.125 0  0.4375 0.125 0  0.46875 0.125 0  0.5 0.125 0  0.53125 0.125 0  0.5625 0.125 0  0.59375 0.125 0  0.625 0.125 0  0.65625 0.125 0  0.6875 0.125 0  0.71875 0.125 0  0.75 0.125 0  0.78125 0.125 0  0.8125 0.125 0  0.84375 0.125 0  0.875 0.125 0  0.90625 0.125 0  0.9375 0.125 0  0.96875 0.125 0  1 0.125 0  0 0.15625 0  0.03125 0.15625 0  0.0625 0.15625 0  0.09375 0.15625 0  0.125 0.15625 0  0.15625 0.15625 0  0.1875 0.15625 0  0.21875 0.15625 0  0.25 0.15625 0  0.28125 0.15625 0  0.3125 0.15625 0  0.34375 0.15625 0  0.375 0.15625 0  0.40625 0.15625 0  0.4375 0.15625 0  0.46875 0.15625 0  0.5 0.15625 0  0.53125 0.15625 0  0.5625 0.15625 0  0.59375 0.15625 0  0.625 0.15625 0  0.65625 0.15625 0  0.6875 0.15625 0  0.71875 0.15625 0  0.75 0.15625 0  0.78125 0.15625 0  0.8125 0.15625 0  0.84375 0.15625 0  0.875 0.15625 0  0.90625 0.15625 0  0.9375 0.15625 0  0.96875 0.15625 0  1 0.15625 0  0 0.1875 0  0.03125 0.1875 0  0.0625 0.1875 0  0.09375 0.1875 0  0.125 0.1875 0  0.15625 0.1875 0  0.1875 0.1875 0  0.21875 0.1875 0  0.25 0.1875 0  0.28125 0.1875 0  0.3125 0.1875 0  0.34375 0.1875 0  0.375 0.1875 0  0.40625 0.1875 0  0.4375 0.1875 0  0.46875 0.1875 0  0.5 0.1875 0  0.53125 0.1875 0  0.5625 0.1875 0  0.59375 0.1875 0  0.625 0.1875 0  0.65625 0.1875 0  0.6875 0.1875 0  0.71875 0.1875 0  0.75 0.1875 0  0.78125 0.1875 0  0.8125 0.1875 0  0.84375 0.1875 0  0.875 0.1875 0  0.90625 0.1875 0  0.9375 0.1875 0  0.96875 0.1875 0  1 0.1875 0  0 0.21875 0  0.03125 0.21875 0  0.0625 0.21875 0  0.09375 0.21875 0  0.125 0.21875 0  0.15625 0.21875 0  0.1875 0.21875 0  0.21875 0.21875 0  0.25 0.21875 0  0.28125 0.21875 0  0.3125 0.21875 0  0.34375 0.21875 0  0.375 0.21875 0  0.40625 0.21875 0  0.4375 0.21875 0  0.46875 0.21875 0  0.5 0.21875 0  0.53125 0.21875 0  0.5625 0.21875 0  0.59375 0.21875 0  0.625 0.21875 0  0.65625 0.21875 0  0.6875 0.21875 0  0.71875 0.21875 0  0.75 0.21875 0  0.78125 0.21875 0  0.8125 0.21875 0  0.84375 0.21875 0  0.875 0.21875 0  0.90625 0.21875 0  0.9375 0.21875 0  0.96875 0.21875 0  1 0.21875 0  0 0.25 0  0.03125 0.25 0  0.0625 0.25 0  0.09375 0.25 0  0.125 0.25 0  0.15625 0.25 0  0.1875 0.25 0  0.21875 0.25 0  0.25 0.25 0  0.28125 0.25 0  0.3125 0.25 0  0.34375 0.25 0  0.375 0.25 0  0.40625 0.25 0  0.4375 0.25 0  0.46875 0.25 0  0.5 0.25 0  0.53125 0.25 0  0.5625 0.25 0  0.59375 0.25 0  0.625 0.25 0  0.65625 0.25 0  0.6875 0.25 0  0.71875 0.25 0  0.75 0.25 0  0.78125 0.25 0  0.8125 0.25 0  0.84375 0.25 0  0.875 0.25 0  0.90625 0.25 0  0.9375 0.25 0  0.96875 0.25 0  1 0.25 0  0 0.28125 0  0.03125 0.28125 0  0.0625 0.28125 0  0.09375 0.28125 0  0.125 0.28125 0  0.15625 0.28125 0  0.1875 0.28125 0  0.21875 0.28125 0  0.25 0.28125 0  0.28125 0.28125 0  0.3125 0.28125 0  0.34375 0.28125 0  0.375 0.28125 0  0.40625 0.28125 0  0.4375 0.28125 0  0.46875 0.28125 0  0.5 0.28125 0  0.53125 0.28125 0  0.5625 0.28125 0  0.59375 0.28125 0  0.625 0.28125 0  0.65625 0.28125 0  0.6875 0.28125 0  0.71875 0.28125 0  0.75 0.28125 0  0.78125 0.28125 0  0.8125 0.28125 0  0.84375 0.28125 0  0.875 0.28125 0  0.90625 0.28125 0  0.9375 0.28125 0  0.96875 0.28125 0  1 0.28125 0  0 0.3125 0  0.03125 0.3125 0  0.0625 0.3125 0  0.09375 0.3125 0  0.125 0.3125 0  0.15625 0.3125 0  0.1875 0.3125 0  0.21875 0.3125 0  0.25 0.3125 0  0.28125 0.3125 0  0.3125 0.3125 0  0.34375 0.3125 0  0.375 0.3125 0  0.40625 0.3125 0  0.4375 0.3125 0  0.46875 0.3125 0  0.5 0.3125 0  0.53125 0.3125 0  0.5625 0.3125 0  0.59375 0.3125 0  0.625 0.3125 0  0.65625 0.3125 0  0.6875 0.3125 0  0.71875 0.3125 0  0.75 0.3125 0  0.78125 0.3125 0  0.8125 0.3125 0  0.84375 0.3125 0  0.875 0.3125 0  0.90625 0.3125 0  0.9375 0.3125 0  0.96875 0.3125 0  1 0.3125 0  0 0.34375 0  0.03125 0.34375 0  0.0625 0.34375 0  0.09375 0.34375 0  0.125 0.34375 0  0.15625 0.34375 0  0.1875 0.34375 0  0.21875 0.34375 0  0.25 0.34375 0  0.28125 0.34375 0  0.3125 0.34375 0  0.34375 0.34375 0  0.375 0.34375 0  0.40625 0.34375 0  0.4375 0.34375 0  0.46875 0.34375 0  0.5 0.34375 0  0.53125 0.34375 0  0.5625 0.34375 0  0.59375 0.34375 0  0.625 0.34375 0  0.65625 0.34375 0  0.6875 0.34375 0  0.71875 0.34375 0  0.75 0.34375 0  0.78125 0.34375 0  0.8125 0.34375 0  0.84375 0.34375 0  0.875 0.34375 0  0.90625 0.34375 0  0.9375 0.34375 0  0.96875 0.34375 0  1 0.34375 0  0 0.375 0  0.03125 0.375 0  0.0625 0.375 0  0.09375 0.375 0  0.125 0.375 0  0.15625 0.375 0  0.1875 0.375 0  0.21875 0.375 0  0.25 0.375 0  0.28125 0.375 0  0.3125 0.375 0  0.34375 0.375 0  0.375 0.375 0  0.40625 0.375 0  0.4375 0.375 0  0.46875 0.375 0  0.5 0.375 0  0.53125 0.375 0  0.5625 0.375 0  0.59375 0.375 0  0.625 0.375 0  0.65625 0.375 0  0.6875 0.375 0  0.71875 0.375 0  0.75 0.375 0  0.78125 0.375 0  0.8125 0.375 0  0.84375 0.375 0  0.875 0.375 0  0.90625 0.375 0  0.9375 0.375 0  0.96875 0.375 0  1 0.375 0  0 0.40625 0  0.03125 0.40625 0  0.0625 0.40625 0  0.09375 0.40625 0  0.125 0.40625 0  0.15625 0.40625 0  0.1875 0.40625 0  0.21875 0.40625 0  0.25 0.40625 0  0.28125 0.40625 0  0.3125 0.40625 0  0.34375 0.40625 0  0.375 0.40625 0  0.40625 0.40625 0  0.4375 0.40625 0  0.46875 0.40625 0  0.5 0.40625 0  0.53125 0.40625 0  0.5625 0.40625 0  0.59375 0.40625 0  0.625 0.40625 0  0.65625 0.40625 0  0.6875 0.40625 0  0.71875 0.40625 0  0.75 0.40625 0  0.78125 0.40625 0  0.8125 0.40625 0  0.84375 0.40625 0  0.875 0.40625 0  0.90625 0.40625 0  0.9375 0.40625 0  0.96875 0.40625 0  1 0.40625 0  0 0.4375 0  0.03125 0.4375 0  0.0625 0.4375 0  0.09375 0.4375 0  0.125 0.4375 0  0.15625 0.4375 0  0.1875 0.4375 0  0.21875 0.4375 0  0.25 0.4375 0  0.28125 0.4375 0  0.3125 0.4375 0  0.34375 0.4375 0  0.375 0.4375 0  0.40625 0.4375 0  0.4375 0.4375 0  0.46875 0.4375 0  0.5 0.4375 0  0.53125 0.4375 0  0.5625 0.4375 0  0.59375 0.4375 0  0.625 0.4375 0  0.65625 0.4375 0  0.6875 0.4375 0  0.71875 0.4375 0  0.75 0.4375 0  0.78125 0.4375 0  0.8125 0.4375 0  0.84375 0.4375 0  0.875 0.4375 0  0.90625 0.4375 0  0.9375 0.4375 0  0.96875 0.4375 0  1 0.4375 0  0 0.46875 0  0.03125 0.46875 0  0.0625 0.46875 0  0.09375 0.46875 0  0.125 0.46875 0  0.15625 0.46875 0  0.1875 0.46875 0  0.21875 0.46875 0  0.25 0.46875 0  0.28125 0.46875 0  0.3125 0.46875 0  0.34375 0.46875 0  0.375 0.46875 0  0.40625 0.46875 0  0.4375 0.46875 0  0.46875 0.46875 0  0.5 0.46875 0  0.53125 0.46875 0  0.5625 0.46875 0  0.59375 0.46875 0  0.625 0.46875 0  0.65625 0.46875 0  0.6875 0.46875 0  0.71875 0.46875 0  0.75 0.46875 0  0.78125 0.46875 0  0.8125 0.46875 0  0.84375 0.46875 0  0.875 0.46875 0  0.90625 0.46875 0  0.9375 0.46875 0  0.96875 0.46875 0  1 0.46875 0  0 0.5 0  0.03125 0.5 0  0.0625 0.5 0  0.09375 0.5 0  0.125 0.5 0  0.15625 0.5 0  0.1875 0.5 0  0.21875 0.5 0  0.25 0.5 0  0.28125 0.5 0  0.3125 0.5 0  0.34375 0.5 0  0.375 0.5 0  0.40625 0.5 0  0.4375 0.5 0  0.46875 0.5 0  0.5 0.5 0  0.53125 0.5 0  0.5625 0.5 0  0.59375 0.5 0  0.625 0.5 0  0.65625 0.5 0  0.6875 0.5 0  0.71875 0.5 0  0.75 0.5 0  0.78125 0.5 0  0.8125 0.5 0  0.84375 0.5 0  0.875 0.5 0  0.90625 0.5 0  0.9375 0.5 0  0.96875 0.5 0  1 0.5 0  0 0.53125 0  0.03125 0.53125 0  0.0625 0.53125 0  0.09375 0.53125 0  0.125 0.53125 0  0.15625 0.53125 0  0.1875 0.53125 0  0.21875 0.53125 0  0.25 0.53125 0  0.28125 0.53125 0  0.3125 0.53125 0  0.34375 0.53125 0  0.375 0.53125 0  0.40625 0.53125 0  0.4375 0.53125 0  0.46875 0.53125 0  0.5 0.53125 0  0.53125 0.53125 0  0.5625 0.53125 0  0.59375 0.53125 0  0.625 0.53125 0  0.65625 0.53125 0  0.6875 0.53125 0  0.71875 0.53125 0  0.75 0.53125 0  0.78125 0.531
[...]
<PointData  Vectors="f_38-0"> 
<DataArray  type="Float64"  Name="f_38-0"  NumberOfComponents="3" format="ascii">0.0000000000000000e+00 0.0000000000000000e+00 0.0000000000000000e+00  0.0000000000000000e+00 0.0000000000000000e+00 0.0000000000000000e+00  0.0000000000000000e+00 0.0000000000000000e+00 0.0000000000000000e+00  0.0000000000000000e+00 0.0000000000000000e+00 0.0000000000000000e+00  0.0000000000000000e+00 0.0000000000000000e+00 0.0000000000000000e+00  0.0000000000000000e+00 0.0000000000000000e+00 0.0000000000000000e+00  0.0000000000000000e+00 0.0000000000000000e+00 0.0000000000000000e+00  0.0000000000000000e+00 0.0000000000000000e+00 0.0000000000000000e+00  0.0000000000000000e+00 0.0000000000000000e+00 0.0000000000000000e+00  0.0000000000000000e+00 0.0000000000000000e+00 0.0000000000000000e+00  0.0000000000000000e+00 0.0000000000000000e+00 0.0000000000000000e+00  0.0000000000000000e+00 0.0000000000000000e+00 0.0000000000000000e+00  0.0000000000000000e+00 0.0000000000000000e+00 0.0000000000000000e+00  0.0000000000000000e+00 0.0000000000000000e+00 0.0000000000000000e+00  0.0000000000000000e+00 0.0000000000000000e+00 0.0000000000000000e+00  0.0000000000000000e+00 0.0000000000000000e+00 0.0000000000000000e+00  0.0000000000000000e+00 0.0000000000000000e+00 0.0000000000000000e+00  0.0000000000000000e+00 0.0000000000000000e+00 0.0000000000000000e+00  0.0000000000000000e+00 0.0000000000000000e+00 0.0000000000000000e+00  0.0000000000000000e+00 0.0000000000000000e+00 0.0000000000000000e+00  0.0000000000000000e+00 0.0000000000000000e+00 0.0000000000000000e+00  0.0000000000000000e+00 0.0000000000000000e+00 0.0000000000000000e+00  0.0000000000000000e+00 0.0000000000000000e+00 0.0000000000000000e+00  0.0000000000000000e+00 0.0000000000000000e+00 0.0000000000000000e+00  0.0000000000000000e+00 0.0000000000000000e+00 0.0000000000000000e+00  0.0000000000000000e+00 0.0000000000000000e+00 0.0000000000000000e+00  0.0000000000000000e+00 0.0000000000000000e+00 0.0000000000000000e+00  0.0000000000000000e+00 0.0000000000000000e+00 0.0000000000000000e+00  0.0000000000000000e+00 0.0000000000000000e+00 0.0000000000000000e+00  0.0000000000000000e+00 0.0000000000000000e+00 0.0000000000000000e+00  0.0000000000000000e+00 0.0000000000000000e+00 0.0000000000000000e+00  0.0000000000000000e+00 0.0000000000000000e+00 0.0000000000000000e+00  0.0000000000000000e+00 0.0000000000000000e+00 0.0000000000000000e+00  1.9509031925750900e-01 0.0000000000000000e+00 0.0000000000000000e+00  2.0551702885258630e-01 -1.0707436165792120e-02 0.0000000000000000e+00  2.2916199565421894e-01 -1.5355738115935345e-02 0.0000000000000000e+00  2.5650117983108189e-01 -1.4889425217625644e-02 0.0000000000000000e+00  2.7967506901330791e-01 -1.0711583323223485e-02 0.0000000000000000e+00  2.9152946887567327e-01 -2.8152841215152232e-03 0.0000000000000000e+00  2.8721396826945567e-01 6.3514336186731302e-03 0.0000000000000000e+00  2.6831049066816165e-01 1.2815163716909113e-02 0.0000000000000000e+00  2.4196549345097437e-01 1.4732597331239021e-02 0.0000000000000000e+00  2.1606285287967161e-01 1.2900697736427748e-02 0.0000000000000000e+00  1.9508754608007076e-01 9.7896529339111804e-03 0.0000000000000000e+00  1.7859193783682864e-01 8.0281919898270489e-03 0.0000000000000000e+00  1.6343571454815831e-01 8.1524954536681821e-03 0.0000000000000000e+00  1.4744435083052110e-01 8.8348799110337054e-03 0.0000000000000000e+00  1.3093395674330094e-01 8.5980620166825148e-03 0.0000000000000000e+00  1.1627627803170026e-01 6.2456854009673548e-03 0.0000000000000000e+00  1.0870779587202897e-01 3.0820664864310233e-04 0.0000000000000000e+00  1.1097794563632879e-01 -1.3587613223565371e-02 0.0000000000000000e+00  1.4368511678915072e-01 -2.8262782962682469e-02 0.0000000000000000e+00  1.8490526287699618e-01 -1.3354461214042317e-02 0.0000000000000000e+00  1.8979710665359489e-01 1.7245097525722975e-04 0.0000000000000000e+00  2.4060830732153093e-01 -3.0933235129914957e-02 0.0000000000000000e+00  3.0066039560397190e-01 -2.0539178430702552e-02 0.0000000000000000e+00  3.2370626954790332e-01 1.2563438825855869e-03 0.0000000000000000e+00  3.1997176031192759e-01 2.5381457818216499e-03 0.0000000000000000e+00  3.4097047905130140e-01 -2.0221515425634752e-02 0.0000000000000000e+00  3.9984141829235909e-01 -3.7993706919909630e-02 0.0000000000000000e+00  4.7889497937608638e-01 -3.8712939721227510e-02 0.0000000000000000e+00  5.4087509116021393e-01 -1.9052381529339937e-02 0.0000000000000000e+00  5.5168046302315865e-01 1.4088853394310678e-02 0.0000000000000000e+00  5.0446202079350755e-01 4.1403173797353678e-02 0.0000000000000000e+00  4.3035201518550209e-01 3.9484093246859135e-02 0.0000000000000000e+00  3.9018063851501800e-01 0.0000000000000000e+00 0.0000000000000000e+00  3.8268342695386243e-01 0.0000000000000000e+00 0.0000000000000000e+00  3.9652678424881754e-01 -3.2807430876786066e-02 0.0000000000000000e+00  4.2523284371419406e-01 -4.6874989899268429e-02 0.0000000000000000e+00  4.5826797716106410e-01 -4.7802053119583146e-02 0.0000000000000000e+00  4.8690919606348654e-01 -3.3442554379036163e-02 0.0000000000000000e+00  4.9863430267847630e-01 -5.4362482635321625e-03 0.0000000000000000e+00  4.8515310074881451e-01 2.5417097204431693e-02 0.0000000000000000e+00  4.4928874600965962e-01 4.6808732957027845e-02 0.0000000000000000e+00  4.0297086211093941e-01 5.1836123769814037e-02 0.0000000000000000e+00  3.5986947683088333e-01 4.3714297962408909e-02 0.0000000000000000e+00  3.2662350399696316e-01 3.3321311461750297e-02 0.0000000000000000e+00  3.0074038098905709e-01 2.8348771654011368e-02 0.0000000000000000e+00  2.7651404102971278e-01 2.8847531335878165e-02 0.0000000000000000e+00  2.5063570320350415e-01 3.0889074168095866e-02 0.0000000000000000e+00  2.2390534670357010e-01 3.0208134113707270e-02 0.0000000000000000e+00  1.9918150729307937e-01 2.4230071694415874e-02 0.0000000000000000e+00  1.7852644899339515e-01 1.0656145010739070e-02 0.0000000000000000e+00  1.6038850784560993e-01 -1.2213656825469876e-02 0.0000000000000000e+00  1.5769634473670849e-01 -4.7529087907928785e-02 0.0000000000000000e+00  0.0000000000000000e+00 0.0000000000000000e+00 0.0000000000000000e+00  1.7551901181267740e-01 -7.8932924795247814e-02 0.0000000000000000e+00  2.4834638636074868e-01 -1.5257829666036377e-01 0.0000000000000000e+00  4.0550533821964396e-01 -1.2479646813122694e-01 0.0000000000000000e+00  4.3513983779558052e-01 7.7008963666480891e-03 0.0000000000000000e+00  4.6504314740645236e-01 -2.1331967678938846e-02 0.0000000000000000e+00  5.2230092199804490e-01 -8.0307303908334196e-02 0.0000000000000000e+00  6.3459157956875345e-01 -1.4477945255385957e-01 0.0000000000000000e+00  7.7201018602278837e-01 -1.5975168866749109e-01 0.0000000000000000e+00  8.9563503808085931e-01 -9.4770221071823618e-02 0.0000000000000000e+00  9.4021021665844318e-01 2.8283579489290795e-02 0.0000000000000000e+00  8.9636322956160608e-01 1.1746757277437885e-01 0.0000000000000000e+00  8.1455420696310143e-01 1.1811682916667493e-01 0.0000000000000000e+00  7.6536685390772485e-01 0.0000000000000000e+00 0.0000000000000000e+00  5.5557022516371812e-01 0.0000000000000000e+00 0.0000000000000000e+00  5.6513189768741179e-01 -5.4493948287888935e-02 0.0000000000000000e+00  5.8471328691239355e-01 -7.6084966030979237e-02 0.0000000000000000e+00  6.0958225595309379e-01 -7.1998283606923258e-02 0.0000000000000000e+00  6.2849133989354278e-01 -4.4888200694964464e-02 0.0000000000000000e+00  6.3128320735610866e-01 9.0664524006458472e-04 0.0000000000000000e+00  6.0388684831554762e-01 5.9551767255409997e-02 0.0000000000000000e+00  5.4690016419944132e-01 1.0071046445658043e-01 0.0000000000000000e+00  4.8219333356803090e-01 1.0597566389059698e-01 0.0000000000000000e+00  4.2907252683652974e-01 8.8891253684322782e-02 0.0000000000000000e+00  3.9079486450578543e-01 6.7765056542114385e-02 0.0000000000000000e+00  3.6372891647981392e-01 5.4387384490144422e-02 0.0000000000000000e+00  3.3801802217457605e-01 5.5304151746877292e-02 0.0000000000000000e+00  3.0790676570580733e-01 6.0478201103311327e-02 0.0000000000000000e+00  2.7688772490163310e-01 5.9161096328088469e-02 0.0000000000000000e+00  2.4781322151092719e-01 5.0486193334444221e-02 0.0000000000000000e+00  2.1978552245687979e-01 3.5115282577189363e-02 0.0000000000000000e+00  1.9071864764804877e-01 1.3913710398008879e-02 0.0000000000000000e+00  1.4571985136629242e-01 -3.4882181307040595e-03 0.0000000000000000e+00  1.3054792345261082e-01 -3.2556481421530004e-02 0.0000000000000000e+00  0.0000000000000000e+00 0.0000000000000000e+00 0.0000000000000000e+00  1.5399636138129380e-01 -2.3811701707842461e-01 0.0000000000000000e+00  0.0000000000000000e+00 0.0000000000000000e+00 0.0000000000000000e+00  4.1398830392049141e-01 -1.0664930387707437e-01 0.0000000000000000e+00  4.2645178104744885e-01 -5.2868132072040962e-02 0.0000000000000000e+00  5.5853468900358683e-01 -2.0062119476889445e-01 0.0000000000000000e+00  7.0867758553845739e-01 -2.9901120249973967e-01 0.0000000000000000e+00  8.9745872171798746e-01 -3.0014498974882098e-01 0.0000000000000000e+00  1.0778273700821506e+00 -1.6680204420248532e-01 0.0000000000000000e+00  1.1660545680079399e+00 3.2207244578775704e-02 0.0000000000000000e+00  1.1734064116263814e+00 1.6606381427776223e-01 0.0000000000000000e+00  1.1354232227104990e+00 1.8362386365469582e-01 0.0000000000000000e+00  1.1111404503274362e+00 0.0000000000000000e+00 0.0000000000000000e+00  7.0710677118790455e-01 0.0000000000000000e+00 0.0000000000000000e+00  7.0725808590055250e-01 -6.4406973475755552e-02 0.0000000000000000e+00  7.1220041165542181e-01 -8.4978542762989454e-02 0.0000000000000000e+00  7.0351442391613650e-01 -8.6476834257657870e-02 0.0000000000000000e+00  6.9517076056720717e-01 -7.9048559439620456e-02 0.0000000000000000e+00  6.8997264890236509e-01 -1.2842153468694303e-03 0.0000000000000000e+00  6.3629489773063330e-01 1.2053413627659648e-01 0.0000000000000000e+00  5.5305966882936652e-01 1.7712314865466322e-01 0.0000000000000000e+00  4.8069845273714634e-01 1.7136038790097169e-01 0.0000000000000000e+00  4.2339915147360740e-01 1.3315189533408792e-01 0.0000000000000000e+00  3.8532106361273077e-01 8.2324454345820627e-02 0.0000000000000000e+00  3.6895810543636531e-01 6.4832876590261143e-02 0.0000000000000000e+00  3.4457621377550157e-01 8.4492140602503041e-02 0.0000000000000000e+00  3.1412472101267752e-01 9.2403325146242957e-02 0.0000000000000000e+00  2.8845369254343606e-01 8.6733910584484569e-02 0.0000000000000000e+00  2.6648305792428251e-01 7.6394035881005587e-02 0.0000000000000000e+00  2.4413619608119655e-01 6.1641606521714382e-02 0.0000000000000000e+00  2.2116802394655208e-01 4.2918424703650017e-02 0.0000000000000000e+00  2.0495155693332487e-01 2.2437958350833526e-02 0.0000000000000000e+00  2.0347793133648989e-01 -1.1761447548412863e-03 0.0000000000000000e+00  2.1478528558059756e-01 -9.6993274732328161e-02 0.0000000000000000e+00  1.4911365342400890e-01 -1.6025031914060048e-01 0.0000000000000000e+00  9.8296234937241947e-02 -1.1633745485587575e-01 0.0000000000000000e+00  0.0000000000000000e+00 0.0000000000000000e+00 0.0000000000000000e+00  4.1213931855562386e-01 -2.7597651153102404e-01 0.0000000000000000e+00  5.1040070661067649e-01 -3.5725824719021421e-01 0.0000000000000000e+00  7.1202526652734344e-01 -4.6513250169869375e-01 0.0000000000000000e+00  8.2348283621420970e-01 -5.0243987068226648e-01 0.0000000000000000e+00  9.3059850876479844e-01 -4.9879334304649720e-01 0.0000000000000000e+00  1.1827817743787854e+00 -2.3897176964186118e-01 0.0000000000000000e+00  1.3001355483300940e+00 1.6813593305550187e-01 0.0000000000000000e+00  1.3827577609853230e+00 1.7257862009335675e-01 0.0000000000000000e+00  1.4142135423758091e+00 0.0000000000000000e+00 0.0000000000000000e+00  8.3146960054538310e-01 0.0000000000000000e+00 0.0000000000000000e+00  8.2560550658021348e-01 -5.8533287319912246e-02 0.0000000000000000e+00  8.1315393726873264e-01 -6.9670207639950091e-02 0.0000000000000000e+00  7.4225851520596287e-01 -5.8428911400327244e-02 0.0000000000000000e+00  7.1710529634394393e-01 -1.0039114294912517e-05 0.0000000000000000e+00  6.2979921950364004e-01 1.6228141840473206e-01 0.0000000000000000e+00  5.1398069605304497e-01 2.3088610781060878e-01 0.0000000000000000e+00  4.4650715628623472e-01 2.4391578563177865e-01 0.0000000000000000e+00  4.1211032151401883e-01 2.2359361755753432e-01 0.0000000000000000e+00  3.6046116536517858e-01 1.7685129142324119e-01 0.0000000000000000e+00  3.3815084430492159e-01 1.3497226361704440e-01 0.0000000000000000e+00  3.0555167868243438e-01 1.4303623815590383e-01 0.0000000000000000e+00  2.6777030608471231e-01 1.2784231970327770e-01 0.0000000000000000e+00  2.5602032558485927e-01 1.0796727926518929e-01 0.0000000000000000e+00  2.6130159124221197e-01 9.7144501093845537e-02 0.0000000000000000e+00  2.6028542972386220e-01 9.0802183944674583e-02 0.0000000000000000e+00  2.5167629996058116e-01 7.7985085803560547e-02 0.0000000000000000e+00  2.4582355098239089e-01 5.4414065843077168e-02 0.0000000000000000e+00  2.5112012010891505e-01 2.2596426586572578e-02 0.0000000000000000e+00  2.6899771582873266e-01 -2.2867834865085868e-02 0.0000000000000000e+00  2.7973979331102106e-01 -7.6387219468866160e-02 0.0000000000000000e+00  2.7101688161980658e-01 -1.0247327917009444e-01 0.0000000000000000e+00  2.4518854300186577e-01 -6.0728872499567856e-02 0.0000000000000000e+00  3.0112675018000995e-01 -5.5153253937912705e-02 0.0000000000000000e+00  0.0000000000000000e+00 0.0000000000000000e+00 0.0000000000000000e+00  7.4413503181183982e-01 -5.7106679200607680e-01 0.0000000000000000e+00  7.7061966778898539e-01 -5.6697931117928391e-01 0.0000000000000000e+00  7.1751620482500411e-01 -4.0838071896072631e-01 0.0000000000000000e+00  0.0000000000000000e+00 0.0000000000000000e+00 0.0000000000000000e+00  0.0000000000000000e+00 0.0000000000000000e+00 0.0000000000000000e+00  1.5818707496140962e+00 2.5686331976145390e-02 0.0000000000000000e+00  1.5326163143591658e+00 5.7867901200376937e-02 0.0000000000000000e+00  1.6629392010907662e+00 0.0000000000000000e+00 0.0000000000000000e+00  9.2387951944743030e-01 0.0000000000000000e+00 0.0000000000000000e+00  9.2035020397388545e-01 -4.8791513636406193e-02 0.0000000000000000e+00  8.9934002952675107e-01 -3.3998926036472386e-02 0.0000000000000000e+00  8.1823041438598110e-01 3.3435206511291921e-02 0.0000000000000000e+00  8.1015300427242243e-01 8.9801138467869343e-02 0.0000000000000000e+00  0.0000000000000000e+00 0.0000000000000000e+00 0.0000000000000000e+00  0.0000000000000000e+00 0.0000000000000000e+00 0.0000000000000000e+00  3.1195955505334000e-01 2.2391104305979251e-01 0.0000000000000000e+00  3.4209475832997910e-01 2.4050449401568372e-01 0.0000000000000000e+00  3.1574874565663169e-01 2.2129490801363363e-01 0.0000000000000000e+00  3.2383336438380406e-01 1.6593354860724893e-01 0.0000000000000000e+00  0.0000000000000000e+00 0.0000000000000000e+00 0.0000000000000000e+00  0.0000000000000000e+00 0.0000000000000000e+00 0.0000000000000000e+00  1.6598800543547504e-01 6.0579485057412570e-02 0.0000000000000000e+00  2.2069037226798252e-01 7.6798008498871750e-02 0.0000000000000000e+00  2.3520123343120719e-01 9.1513549005042133e-02 0.0000000000000000e+00  2.3848552804223852e-01 7.9722491084003699e-02 0.0000000000000000e+00  2.4937270184729143e-01 4.6188518412404470e-02 0.0000000000000000e+00  2.7603967445323407e-01 -1.0964801822198117e-03 0.0000000000000000e+00  3.1595655978716031e-01 -5.3155826315197545e-02 0.0000000000000000e+00  3.6202554359506273e-01 -9.9526500220819103e-02 0.0000000000000000e+00  4.1303518820411572e-01 -1.2292175843047236e-01 0.0000000000000000e+00  4.9425520930531186e-01 -1.2371127180417460e-01 0.0000000000000000e+00  6.4009286701063994e-01 -1.3909267263998096e-01 0.0000000000000000e+00  8.7363167418207355e-01 -3.4580275709591429e-01 0.0000000000000000e+00  9.7489902423410346e-01 -6.2445501031004680e-01 0.0000000000000000e+00  9.7832575418112488e-01 -5.9897604208683586e-01 0.0000000000000000e+00  1.0446285870909013e+00 -2.6090373529184407e-01 0.0000000000000000e+00  1.1570264180998844e+00 1.3869924802024569e-01 0.0000000000000000e+00  1.4603960808864440e+00 1.9911679198136198e-01 0.0000000000000000e+00  1.6684383729874412e+00 -9.5324118728448398e-02 0.0000000000000000e+00  1.7253723328305501e+00 -1.2624104543707326e-01 0.0000000000000000e+00  1.8477590388948606e+00 0.0000000000000000e+00 0.0000000000000000e+00  9.8078526653471287e-01 0.0000000000000000e+00 0.0000000000000000e+00  9.8708968858776613e-01 -4.3568365660009302e-02 0.0000000000000000e+00  9.8213258194453179e-01 2.3884640978005232e-03 0.0000000000000000e+00  9.4659334281748286e-01 1.0970688857544188e-01 0.0000000000000000e+00  8.5936965474078530e-01 2.0733335387007415e-01 0.0000000000000000e+00  7.1858002798753273e-01 1.0326302560205357e-01 0.0000000000000000e+00  4.8896029127137824e-01 7.7325186964837811e-02 0.0000000000000000e+00  3.7627980577352166e-01 1.8299510589766080e-01 0.0000000000000000e+00  3.4429957937985023e-01 2.4855745815699659e-01 0.0000000000000000e+00  3.2182205738674735e-01 2.4855661674907345e-01 0.0000000000000000e+00  2.9420535008216181e-01 1.9696639759602522e-01 0.0000000000000000e+00  2.5137803413248172e-01 5.5185874323587021e-02 0.0000000000000000e+00  1.6367204209810868e-01 -1.9894585396709533e-02 0.0000000000000000e+00  1.6441396886789125e-01 9.0425174122454651e-03 0.0000000000000000e+00  1.8007126385809227e-01 7.0168381177760891e-02 0.0000000000000000e+00  1.8448214236792526e-01 8.4488224424435196e-02 0.0000000000000000e+00  1.9678504896803772e-01 6.8626794736110761e-02 0.0000000000000000e+00  2.2779616063308186e-01 1.6769808567101138e-02 0.0000000000000000e+00  2.7926041008956104e-01 -4.8606015896281968e-02 0.0000000000000000e+00  3.4746379282834700e-01 -1.1297715296693145e-01 0.0000000000000000e+00  4.2939442326753924e-01 -1.6913023633450935e-01 0.0000000000000000e+00  5.3089997738121530e-01 -2.1372801790428614e-01 0.0000000000000000e+00  6.6553216097950973e-01 -2.5625685611543436e-01 0.0000000000000000e+00  8.3646686035074913e-01 -3.3955459696958884e-01 0.0000000000000000e+00  9.9273329484427908e-01 -5.0040465536095280e-01 0.0000000000000000e+00  1.0369260358995149e+00 -6.6306447075149499e-01 0.0000000000000000e+00  1.0552296367085525e+00 -6.6477268331221484e-01 0.0000000000000000e+00  1.1000119210259520e+00 -4.9322832215542317e-01 0.0000000000000000e+00  1.3332287376778651e+00 -2.7333337046586531e-01 0.0000000000000000e+00  1.5716045259128897e+00 -1.8758786142966599e-01 0.0000000000000000e+00  1.7561981131486644e+00 -3.3113927032595886e-01 0.0000000000000000e+00  1.8950212449631234e+00 -2.4284221957662658e-01 0.0000000000000000e+00  1.9615705330694257e+00 0.0000000000000000e+00 0.0000000000000000e+00  9.9999998585978256e-01 0.0000000000000000e+00 0.0000000000000000e+00  1.0062572514820802e+00 -5.7264098181837586e-02 0.0000000000000000e+00  1.0186447512578547e+00 -1.6685228983941786e-02 0.0000000000000000e+00  1.0085509681476825e+00 1.5119825432098027e-01 0.0000000000000000e+00  9.2015826414361102e-01 3.1098942321520318e-01 0.0000000000000000e+00  7.7784966683051249e-01 3.3683785764983254e-01 0.0000000000000000e+00  6.1253252258312652e-01 2.9143213140528612e-01 0.0000000000000000e+00  4.6084628087716373e-01 2.8147851458433037e-01 0.0000000000000000e+00  3.7670296995607289e-01 2.9198527248307210e-01 0.0000000000000000e+00  3.3134868824952018e-01 2.7795838128696371e-01 0.0000000000000000e+00  2.9987806281798390e-01 2.2165683873162947e-01 0.0000000000000000e+00  2.5920091659822508e-01 1.3674624336797220e-01 0.0000000000000000e+00  2.0142259033166979e-01 5.8562545492770179e-02 0.0000000000000000e+00  1.7789598185843009e-01 1.1640456471503621e-02 0.0000000000000000e+00  0.0000000000000000e+00 0.0000000000000000e+00 0.0000000000000000e+00  8.0853789600435974e-02 5.9969211699191609e-02 0.0000000000000000e+00  1.2782730347083102e-01 3.2298934795153555e-02 0.0000000000000000e+00  1.8575240454176992e-01 -4.0638341007480559e-02 0.0000000000000000e+00  2.6718648396280126e-01 -1.2305164270918374e-01