<?xml version="1.0"?>
<VTKFile type="UnstructuredGrid"  version="0.1"  >
<UnstructuredGrid>
<Piece  NumberOfPoints="20297" NumberOfCells="37598">
<Points>
<DataArray  type="Float64"  NumberOfComponents="3"  format="ascii">0 1 0  0 0 0  1 0 0  1 1 0  0.4193548387096774 0.3957557478112131 0  0.4391882976170418 0.3870967741935484 0  0.4193548387096774 0.3586062758751302 0  0.4164696164336297 0.3548387096774194 0  0.3870967741935484 0.3249861511775794 0  0.3854476115411556 0.3225806451612903 0  0.3870967741935484 0.3218777812264701 0  0.3979462407852638 0.2903225806451613 0  0.3870967741935484 0.2730063903418078 0  0.3548387096774194 0.2583664463781581 0  0.3416284385829369 0.2903225806451613 0  0.3225806451612903 0.3189524082740545 0  0.3137163387718033 0.3225806451612903 0  0.2903225806451613 0.3514429969577487 0  0.2695204281107318 0.3225806451612903 0  0.2580645161290323 0.311619620188604 0  0.2481724043523276 0.2903225806451613 0  0.2258064516129032 0.2725312873880542 0  0.2066432715143114 0.2903225806451613 0  0.1935483870967742 0.3113192897949753 0  0.1612903225806452 0.2993683899037621 0  0.1514493761202808 0.2903225806451613 0  0.1612903225806452 0.279102510680159 0  0.1732195430821553 0.2580645161290323 0  0.1612903225806452 0.2516200792785254 0  0.1290322580645161 0.2466876901476395 0  0.09677419354838709 0.25151869066312 0  0.07386385805206379 0.2258064516129032 0  0.06451612903225806 0.2019081726101217 0  0.04376402310781836 0.2258064516129032 0  0.03225806451612903 0.2555225314946796 0  0.03225648147933431 0.2580645161290323 0  0.03222873620683644 0.2903225806451613 0  0.03225806451612903 0.3032394568443953 0  0.04597755618816433 0.3225806451612903 0  0.05254427611470952 0.3548387096774194 0  0.05387615044031122 0.3870967741935484 0  0.03225806451612903 0.4019233600410395 0  0.03213082293660115 0.4193548387096774 0  0.03224040681370221 0.4516129032258064 0  0.03221732828023535 0.4838709677419355 0  0.03225806451612903 0.4995653215273025 0  0.06451612903225806 0.5092810751241968 0  0.09677419354838709 0.484185628137613 0  0.09728808753359655 0.4838709677419355 0  0.1290322580645161 0.465616342822313 0  0.1612903225806452 0.4577254510826551 0  0.1693495921787164 0.4516129032258064 0  0.1612903225806452 0.4343794527121964 0  0.1290322580645161 0.4273383524910928 0  0.09677419354838709 0.4508457305344588 0  0.08133320684661607 0.4193548387096774 0  0.09677419354838709 0.4117030222580202 0  0.1211266378384577 0.3870967741935484 0  0.1290322580645161 0.3578755671730555 0  0.1449091407444954 0.3870967741935484 0  0.1612903225806452 0.4120805049710443 0  0.1930632608778556 0.3870967741935484 0  0.1935483870967742 0.3862133946651745 0  0.1996065233010894 0.3548387096774194 0  0.2258064516129032 0.3305837886559046 0  0.2495680055093841 0.3548387096774194 0  0.2580645161290323 0.3645425018077238 0  0.2903225806451613 0.3559296041622334 0  0.3225806451612903 0.3598685167302493 0  0.3500592626049289 0.3870967741935484 0  0.3548387096774194 0.3949789023639879 0  0.3870967741935484 0.4080512647083659 0  0.4516129032258064 0.3685660158275543 0  0.4646634615501196 0.3548387096774194 0  0.4516129032258064 0.3402213239789891 0  0.4265085781601817 0.3548387096774194 0  0.5161290322580645 0.3069473962767141 0  0.5313578713464154 0.2903225806451613 0  0.5286810232132444 0.2580645161290323 0  0.5161290322580645 0.2564061200380998 0  0.4936075414951089 0.2580645161290323 0  0.4838709677419355 0.2590436555477507 0  0.459499878759375 0.2903225806451613 0  0.4838709677419355 0.3115666293483131 0  0.686935246830378 0.1935483870967742 0  0.6964070380520153 0.1612903225806452 0  0.6774193548387096 0.1402578423727283 0  0.6451612903225806 0.1345794495594131 0  0.6277622380621604 0.1290322580645161 0  0.6451612903225806 0.1189758427426393 0  0.6528834706168711 0.09677419354838709 0  0.655698889350132 0.06451612903225806 0  0.6451612903225806 0.04670010240721646 0  0.6327777436624538 0.03225806451612903 0  0.6129032258064516 0.03218639407161423 0  0.5806451612903225 0.03224917164614495 0  0.5761461356752962 0.03225806451612903 0  0.5806451612903225 0.0361258062351244 0  0.5999612094973704 0.06451612903225806 0  0.5806451612903225 0.09469915386453576 0  0.5774459036075319 0.09677419354838709 0  0.5806451612903225 0.1006596512239938 0  0.6012448791544495 0.1290322580645161 0  0.594219701670722 0.1612903225806452 0  0.5806451612903225 0.1684365727403344 0  0.5483870967741935 0.1889892265005325 0  0.5161290322580645 0.1716050249229841 0  0.5017777076022358 0.1935483870967742 0  0.5161290322580645 0.2011280284310864 0  0.5483870967741935 0.1952735898513203 0  0.5784862191910172 0.2258064516129032 0  0.5520398457204474 0.2580645161290323 0  0.5806451612903225 0.2768836330005696 0  0.6004530642844397 0.2580645161290323 0  0.6129032258064516 0.2333898795078895 0  0.6174752118366921 0.2258064516129032 0  0.6451612903225806 0.2053712575733347 0  0.6774193548387096 0.1989230468550632 0  0.7096774193548387 0.1443950683655721 0  0.721589313359236 0.1290322580645161 0  0.7096774193548387 0.1106094247058165 0  0.692144421788041 0.1290322580645161 0  0.5161290322580645 0.1422339031567273 0  0.5190625373543839 0.1290322580645161 0  0.5161290322580645 0.1271717806076735 0  0.4838709677419355 0.1187540176777006 0  0.4735035789837664 0.1290322580645161 0  0.4838709677419355 0.1529097696696663 0  0.3225806451612903 0.2620249410094764 0  0.3533959488907933 0.2580645161290323 0  0.3339421325567522 0.2258064516129032 0  0.3225806451612903 0.1978029740214226 0  0.2981775717512479 0.2258064516129032 0  0.2903225806451613 0.2312660272371715 0  0.2721946271792433 0.2580645161290323 0  0.2745463159978684 0.2903225806451613 0  0.2903225806451613 0.3066445196360119 0  0.298553146689821 0.2903225806451613 0  0.2580645161290323 0.2087063969447212 0  0.2850170709881975 0.1935483870967742 0  0.2627491359744988 0.1612903225806452 0  0.2580645161290323 0.1472670452958482 0  0.2536406068060094 0.1612903225806452 0  0.2318754587044064 0.1935483870967742 0  0.4516129032258064 0.2185869073094419 0  0.4666177781176092 0.1935483870967742 0  0.4516129032258064 0.166619940016267 0  0.4193548387096774 0.1702594020704004 0  0.3982699974913231 0.1612903225806452 0  0.3870967741935484 0.1539657212254513 0  0.3548387096774194 0.1331125011748442 0  0.3526637828149454 0.1290322580645161 0  0.3454189804172519 0.09677419354838709 0  0.3225806451612903 0.08464216362596107 0  0.3113894449696348 0.09677419354838709 0  0.2903225806451613 0.1213739274247775 0  0.2709327251246011 0.1290322580645161 0  0.2903225806451613 0.1370885911331876 0  0.3225605547830323 0.1612903225806452 0  0.3225806451612903 0.1614048339747417 0  0.3258600584992967 0.1935483870967742 0  0.3548387096774194 0.2071595305573526 0  0.3870967741935484 0.2089275363248324 0  0.4092869932689901 0.2258064516129032 0  0.4193548387096774 0.2338896126505015 0  0.4365375268436124 0.2258064516129032 0  0.4537898839618074 0.06451612903225806 0  0.4613875883001616 0.03225806451612903 0  0.4516129032258064 0.03222712762353553 0  0.4379152422378026 0.03225806451612903 0  0.4462687365275376 0.06451612903225806 0  0.4516129032258064 0.06812971066814638 0  0.3926210056092596 0.09677419354838709 0  0.4015481191267781 0.06451612903225806 0  0.3870967741935484 0.04696402089405764 0  0.3799338263321365 0.06451612903225806 0  0.3738940148816253 0.09677419354838709 0  0.3870967741935484 0.1012834597693733 0  0.2580645161290323 0.1216739564841013 0  0.2713376572955529 0.09677419354838709 0  0.2580645161290323 0.08198768857200381 0  0.245033761372629 0.09677419354838709 0  0.2258064516129032 0.2298660035432382 0  0.2280060663119162 0.2258064516129032 0  0.2258064516129032 0.2173333840276323 0  0.2055460781455446 0.1935483870967742 0  0.1935483870967742 0.1837972694455655 0  0.1750066271498013 0.1612903225806452 0  0.1612903225806452 0.1573751070311096 0  0.1290322580645161 0.1589558562314616 0  0.1204470760410392 0.1612903225806452 0  0.09677419354838709 0.1688320169202633 0  0.07247728255580783 0.1935483870967742 0  0.09677419354838709 0.203336208057176 0  0.1290322580645161 0.2113530895768299 0  0.1612903225806452 0.2028607206999856 0  0.1841599655732597 0.2258064516129032 0  0.1935483870967742 0.2416476290436882 0  0.1488939216812757 0.09677419354838709 0  0.1505014824598396 0.06451612903225806 0  0.1290322580645161 0.03262525470034697 0  0.1117282278160045 0.06451612903225806 0  0.1184785652110032 0.09677419354838709 0  0.1290322580645161 0.1117145651496636 0  0.1612903225806452 0.03906962705370044 0  0.1623983095854954 0.03225806451612903 0  0.1612903225806452 0.03225347508105359 0  0.1315756782463647 0.03225806451612903 0  0.04527109249512595 0.06451612903225806 0  0.05001899341614489 0.03225806451612903 0  0.03225806451612903 0.03220338797779966 0  0.03220350731587281 0.03225806451612903 0  0.03224635366787391 0.06451612903225806 0  0.03225806451612903 0.06988410449505301 0  0.03225806451612903 0.2167686534297316 0  0.05815644045114145 0.1935483870967742 0  0.03225806451612903 0.1772567327624284 0  0.03221059742118187 0.1935483870967742 0  0.06451612903225806 0.1853701478056508 0  0.0890232024988057 0.1612903225806452 0  0.06451612903225806 0.1456560387370963 0  0.05082108587908855 0.1612903225806452 0  0.06451612903225806 0.5654702856269378 0  0.08216237167173589 0.5483870967741935 0  0.06451612903225806 0.5215308645011285 0  0.03225806451612903 0.5242337748353204 0  0.03213082593706674 0.5483870967741935 0  0.03221759271273896 0.5806451612903225 0  0.03225806451612903 0.6099152963606872 0  0.04266224949681238 0.5806451612903225 0  0.06451612903225806 0.9215871417404886 0  0.08006242281033961 0.9032258064516129 0  0.06451612903225806 0.8827867084392479 0  0.05542191815931365 0.8709677419354839 0  0.03225806451612903 0.839338625244503 0  0.03218467027919811 0.8709677419354839 0  0.03222064360957538 0.9032258064516129 0  0.03225806451612903 0.9102944443544632 0  0.09677419354838709 0.8090946794192896 0  0.1012622907279799 0.80645161290322
[...]
<PointData  Vectors="f_615-0"> 
<DataArray  type="Float64"  Name="f_615-0"  NumberOfComponents="3" format="ascii">0.0000000000000000e+00 -9.9999999889123725e-01 0.0000000000000000e+00  0.0000000000000000e+00 -9.9999999889123725e-01 0.0000000000000000e+00  0.0000000000000000e+00 -9.9999999889123725e-01 0.0000000000000000e+00  0.0000000000000000e+00 -9.9999999889123725e-01 0.0000000000000000e+00  0.0000000000000000e+00 0.0000000000000000e+00 0.0000000000000000e+00  0.0000000000000000e+00 0.0000000000000000e+00 0.0000000000000000e+00  0.0000000000000000e+00 0.0000000000000000e+00 0.0000000000000000e+00  0.0000000000000000e+00 0.0000000000000000e+00 0.0000000000000000e+00  0.0000000000000000e+00 0.0000000000000000e+00 0.0000000000000000e+00  0.0000000000000000e+00 0.0000000000000000e+00 0.0000000000000000e+00  0.0000000000000000e+00 0.0000000000000000e+00 0.0000000000000000e+00  0.0000000000000000e+00 0.0000000000000000e+00 0.0000000000000000e+00  0.0000000000000000e+00 0.0000000000000000e+00 0.0000000000000000e+00  0.0000000000000000e+00 0.0000000000000000e+00 0.0000000000000000e+00  0.0000000000000000e+00 0.0000000000000000e+00 0.0000000000000000e+00  0.0000000000000000e+00 0.0000000000000000e+00 0.0000000000000000e+00  0.0000000000000000e+00 0.0000000000000000e+00 0.0000000000000000e+00  0.0000000000000000e+00 0.0000000000000000e+00 0.0000000000000000e+00  0.0000000000000000e+00 0.0000000000000000e+00 0.0000000000000000e+00  0.0000000000000000e+00 0.0000000000000000e+00 0.0000000000000000e+00  0.0000000000000000e+00 0.0000000000000000e+00 0.0000000000000000e+00  0.0000000000000000e+00 0.0000000000000000e+00 0.0000000000000000e+00  0.0000000000000000e+00 0.0000000000000000e+00 0.0000000000000000e+00  0.0000000000000000e+00 0.0000000000000000e+00 0.0000000000000000e+00  0.0000000000000000e+00 0.0000000000000000e+00 0.0000000000000000e+00  0.0000000000000000e+00 0.0000000000000000e+00 0.0000000000000000e+00  0.0000000000000000e+00 0.0000000000000000e+00 0.0000000000000000e+00  0.0000000000000000e+00 0.0000000000000000e+00 0.0000000000000000e+00  0.0000000000000000e+00 0.0000000000000000e+00 0.0000000000000000e+00  0.0000000000000000e+00 0.0000000000000000e+00 0.0000000000000000e+00  0.0000000000000000e+00 0.0000000000000000e+00 0.0000000000000000e+00  0.0000000000000000e+00 0.0000000000000000e+00 0.0000000000000000e+00  0.0000000000000000e+00 0.0000000000000000e+00 0.0000000000000000e+00  0.0000000000000000e+00 0.0000000000000000e+00 0.0000000000000000e+00  0.0000000000000000e+00 0.0000000000000000e+00 0.0000000000000000e+00  0.0000000000000000e+00 0.0000000000000000e+00 0.0000000000000000e+00  0.0000000000000000e+00 0.0000000000000000e+00 0.0000000000000000e+00  0.0000000000000000e+00 0.0000000000000000e+00 0.0000000000000000e+00  0.0000000000000000e+00 0.0000000000000000e+00 0.0000000000000000e+00  0.0000000000000000e+00 0.0000000000000000e+00 0.0000000000000000e+00  0.0000000000000000e+00 0.0000000000000000e+00 0.0000000000000000e+00  0.0000000000000000e+00 0.0000000000000000e+00 0.0000000000000000e+00  0.0000000000000000e+00 0.0000000000000000e+00 0.0000000000000000e+00  0.0000000000000000e+00 0.0000000000000000e+00 0.0000000000000000e+00  0.0000000000000000e+00 0.0000000000000000e+00 0.0000000000000000e+00  0.0000000000000000e+00 0.0000000000000000e+00 0.0000000000000000e+00  0.0000000000000000e+00 0.0000000000000000e+00 0.0000000000000000e+00  0.0000000000000000e+00 0.0000000000000000e+00 0.0000000000000000e+00  0.0000000000000000e+00 0.0000000000000000e+00 0.0000000000000000e+00  0.0000000000000000e+00 0.0000000000000000e+00 0.0000000000000000e+00  0.0000000000000000e+00 0.0000000000000000e+00 0.0000000000000000e+00  0.0000000000000000e+00 0.0000000000000000e+00 0.0000000000000000e+00  0.0000000000000000e+00 0.0000000000000000e+00 0.0000000000000000e+00  0.0000000000000000e+00 0.0000000000000000e+00 0.0000000000000000e+00  0.0000000000000000e+00 0.0000000000000000e+00 0.0000000000000000e+00  0.0000000000000000e+00 0.0000000000000000e+00 0.0000000000000000e+00  0.0000000000000000e+00 0.0000000000000000e+00 0.0000000000000000e+00  0.0000000000000000e+00 0.0000000000000000e+00 0.0000000000000000e+00  0.0000000000000000e+00 0.0000000000000000e+00 0.0000000000000000e+00  0.0000000000000000e+00 0.0000000000000000e+00 0.0000000000000000e+00  0.0000000000000000e+00 0.0000000000000000e+00 0.0000000000000000e+00  0.0000000000000000e+00 0.0000000000000000e+00 0.0000000000000000e+00  0.0000000000000000e+00 0.0000000000000000e+00 0.0000000000000000e+00  0.0000000000000000e+00 0.0000000000000000e+00 0.0000000000000000e+00  0.0000000000000000e+00 0.0000000000000000e+00 0.0000000000000000e+00  0.0000000000000000e+00 0.0000000000000000e+00 0.0000000000000000e+00  0.0000000000000000e+00 0.0000000000000000e+00 0.0000000000000000e+00  0.0000000000000000e+00 0.0000000000000000e+00 0.0000000000000000e+00  0.0000000000000000e+00 0.0000000000000000e+00 0.0000000000000000e+00  0.0000000000000000e+00 0.0000000000000000e+00 0.0000000000000000e+00  0.0000000000000000e+00 0.0000000000000000e+00 0.0000000000000000e+00  0.0000000000000000e+00 0.0000000000000000e+00 0.0000000000000000e+00  0.0000000000000000e+00 0.0000000000000000e+00 0.0000000000000000e+00  0.0000000000000000e+00 0.0000000000000000e+00 0.0000000000000000e+00  0.0000000000000000e+00 0.0000000000000000e+00 0.0000000000000000e+00  0.0000000000000000e+00 0.0000000000000000e+00 0.0000000000000000e+00  0.0000000000000000e+00 0.0000000000000000e+00 0.0000000000000000e+00  0.0000000000000000e+00 0.0000000000000000e+00 0.0000000000000000e+00  0.0000000000000000e+00 0.0000000000000000e+00 0.0000000000000000e+00  0.0000000000000000e+00 0.0000000000000000e+00 0.0000000000000000e+00  0.0000000000000000e+00 0.0000000000000000e+00 0.0000000000000000e+00  0.0000000000000000e+00 0.0000000000000000e+00 0.0000000000000000e+00  0.0000000000000000e+00 0.0000000000000000e+00 0.0000000000000000e+00  0.0000000000000000e+00 0.0000000000000000e+00 0.0000000000000000e+00  0.0000000000000000e+00 0.0000000000000000e+00 0.0000000000000000e+00  0.0000000000000000e+00 0.0000000000000000e+00 0.0000000000000000e+00  0.0000000000000000e+00 0.0000000000000000e+00 0.0000000000000000e+00  0.0000000000000000e+00 0.0000000000000000e+00 0.0000000000000000e+00  0.0000000000000000e+00 0.0000000000000000e+00 0.0000000000000000e+00  0.0000000000000000e+00 0.0000000000000000e+00 0.0000000000000000e+00  0.0000000000000000e+00 0.0000000000000000e+00 0.0000000000000000e+00  0.0000000000000000e+00 0.0000000000000000e+00 0.0000000000000000e+00  0.0000000000000000e+00 0.0000000000000000e+00 0.0000000000000000e+00  0.0000000000000000e+00 0.0000000000000000e+00 0.0000000000000000e+00  0.0000000000000000e+00 0.0000000000000000e+00 0.0000000000000000e+00  0.0000000000000000e+00 0.0000000000000000e+00 0.0000000000000000e+00  0.0000000000000000e+00 0.0000000000000000e+00 0.0000000000000000e+00  0.0000000000000000e+00 0.0000000000000000e+00 0.0000000000000000e+00  0.0000000000000000e+00 0.0000000000000000e+00 0.0000000000000000e+00  0.0000000000000000e+00 0.0000000000000000e+00 0.0000000000000000e+00  0.0000000000000000e+00 0.0000000000000000e+00 0.0000000000000000e+00  0.0000000000000000e+00 0.0000000000000000e+00 0.0000000000000000e+00  0.0000000000000000e+00 0.0000000000000000e+00 0.0000000000000000e+00  0.0000000000000000e+00 0.0000000000000000e+00 0.0000000000000000e+00  0.0000000000000000e+00 0.0000000000000000e+00 0.0000000000000000e+00  0.0000000000000000e+00 0.0000000000000000e+00 0.0000000000000000e+00  0.0000000000000000e+00 0.0000000000000000e+00 0.0000000000000000e+00  0.0000000000000000e+00 0.0000000000000000e+00 0.0000000000000000e+00  0.0000000000000000e+00 0.0000000000000000e+00 0.0000000000000000e+00  0.0000000000000000e+00 0.0000000000000000e+00 0.0000000000000000e+00  0.0000000000000000e+00 0.0000000000000000e+00 0.0000000000000000e+00  0.0000000000000000e+00 0.0000000000000000e+00 0.0000000000000000e+00  0.0000000000000000e+00 0.0000000000000000e+00 0.0000000000000000e+00  0.0000000000000000e+00 0.0000000000000000e+00 0.0000000000000000e+00  0.0000000000000000e+00 0.0000000000000000e+00 0.0000000000000000e+00  0.0000000000000000e+00 0.0000000000000000e+00 0.0000000000000000e+00  0.0000000000000000e+00 0.0000000000000000e+00 0.0000000000000000e+00  0.0000000000000000e+00 0.0000000000000000e+00 0.0000000000000000e+00  0.0000000000000000e+00 0.0000000000000000e+00 0.0000000000000000e+00  0.0000000000000000e+00 0.0000000000000000e+00 0.0000000000000000e+00  0.0000000000000000e+00 0.0000000000000000e+00 0.0000000000000000e+00  0.0000000000000000e+00 0.0000000000000000e+00 0.0000000000000000e+00  0.0000000000000000e+00 0.0000000000000000e+00 0.0000000000000000e+00  0.0000000000000000e+00 0.0000000000000000e+00 0.0000000000000000e+00  0.0000000000000000e+00 0.0000000000000000e+00 0.0000000000000000e+00  0.0000000000000000e+00 0.0000000000000000e+00 0.0000000000000000e+00  0.0000000000000000e+00 0.0000000000000000e+00 0.0000000000000000e+00  0.0000000000000000e+00 0.0000000000000000e+00 0.0000000000000000e+00  0.0000000000000000e+00 0.0000000000000000e+00 0.0000000000000000e+00  0.0000000000000000e+00 0.0000000000000000e+00 0.0000000000000000e+00  0.0000000000000000e+00 0.0000000000000000e+00 0.0000000000000000e+00  0.0000000000000000e+00 0.0000000000000000e+00 0.0000000000000000e+00  0.0000000000000000e+00 0.0000000000000000e+00 0.0000000000000000e+00  0.0000000000000000e+00 0.0000000000000000e+00 0.0000000000000000e+00  0.0000000000000000e+00 0.0000000000000000e+00 0.0000000000000000e+00  0.0000000000000000e+00 0.0000000000000000e+00 0.0000000000000000e+00  0.0000000000000000e+00 0.0000000000000000e+00 0.0000000000000000e+00  0.0000000000000000e+00 0.0000000000000000e+00 0.0000000000000000e+00  0.0000000000000000e+00 0.0000000000000000e+00 0.0000000000000000e+00  0.0000000000000000e+00 0.0000000000000000e+00 0.0000000000000000e+00  0.0000000000000000e+00 0.0000000000000000e+00 0.0000000000000000e+00  0.0000000000000000e+00 0.0000000000000000e+00 0.0000000000000000e+00  0.0000000000000000e+00 0.0000000000000000e+00 0.0000000000000000e+00  0.0000000000000000e+00 0.0000000000000000e+00 0.0000000000000000e+00  0.0000000000000000e+00 0.0000000000000000e+00 0.0000000000000000e+00  0.0000000000000000e+00 0.0000000000000000e+00 0.0000000000000000e+00  0.0000000000000000e+00 0.0000000000000000e+00 0.0000000000000000e+00  0.0000000000000000e+00 0.0000000000000000e+00 0.0000000000000000e+00  0.0000000000000000e+00 0.0000000000000000e+00 0.0000000000000000e+00  0.0000000000000000e+00 0.0000000000000000e+00 0.0000000000000000e+00  0.0000000000000000e+00 0.0000000000000000e+00 0.0000000000000000e+00  0.0000000000000000e+00 0.0000000000000000e+00 0.0000000000000000e+00  0.0000000000000000e+00 0.0000000000000000e+00 0.0000000000000000e+00  0.0000000000000000e+00 0.0000000000000000e+00 0.0000000000000000e+00  0.0000000000000000e+00 0.0000000000000000e+00 0.0000000000000000e+00  0.0000000000000000e+00 0.0000000000000000e+00 0.0000000000000000e+00  0.0000000000000000e+00 0.0000000000000000e+00 0.0000000000000000e+00  0.0000000000000000e+00 0.0000000000000000e+00 0.0000000000000000e+00  0.0000000000000000e+00 0.0000000000000000e+00 0.0000000000000000e+00  0.0000000000000000e+00 0.0000000000000000e+00 0.0000000000000000e+00  0.0000000000000000e+00 0.0000000000000000e+00 0.0000000000000000e+00  0.0000000000000000e+00 0.0000000000000000e+00 0.0000000000000000e+00  0.0000000000000000e+00 0.0000000000000000e+00 0.0000000000000000e+00  0.0000000000000000e+00 0.0000000000000000e+00 0.0000000000000000e+00  0.0000000000000000e+00 0.0000000000000000e+00 0.0000000000000000e+00  0.0000000000000000e+00 0.0000000000000000e+00 0.0000000000000000e+00  0.0000000000000000e+00 0.0000000000000000e+00 0.0000000000000000e+00  0.0000000000000000e+00 0.0000000000000000e+00 0.0000000000000000e+00  0.0000000000000000e+00 0.0000000000000000e+00 0.0000000000000000e+00  0.0000000000000000e+00 0.0000000000000000e+00 0.0000000000000000e+00  0.0000000000000000e+00 0.0000000000000000e+00 0.0000000000000000e+00  0.0000000000000000e+00 0.0000000000000000e+00 0.0000000000000000e+00  0.0000000000000000e+00 0.0000000000000000e+00 0.0000000000000000e+00  0.0000000000000000e+00 0.0000000000000000e+00 0.0000000000000000e+00  0.0000000000000000e+00 0.0000000000000000e+00 0.0000000000000000e+00  0.0000000000000000e+00 0.0000000000000000e+00 0.0000000000000000e+00  0.0000000000000000e+00 0.0000000000000000e+00 0.0000000000000000e+00  0.0000000000000000e+00 0.0000000000000000e+00 0.0000000000000000e+00  0.0000000000000000e+00 0.0000000000000000e+00 0.0000000000000000e+00  0.0000000000000000e+00 0.0000000000000000e+00 0.0000000000000000e+00  0.0000000000000000e+00 0.0000000000000000e+00 0.0000000000000000e+00  0.0000000000000000e+00 0.0000000000000000e+00 0.0000000000000000e+00  0.0000000000000000e+00 0.0000000000000000e+00 0.0000000000000000e+00  0.0000000000000000e+00 0.0000000000000000e+00 0.0000000000000000e+00  0.0000000000000000e+00 0.0000000000000000e+00 0.0000000000000000e+00  0.0000000000000000e+00 0.0000000000000000e+00 0.0000000000000000e+00  0.0000000000000000e+00 0.0000000000000000e+00 0.0000000000000000e+00  0.0000000000000000e+00 0.0000000000000000e+00 0.0000000000000000e+00  0.0000000000000000e+00 0.0000000000000000e+00 0.0000000000000000e+00  0.0000000000000000e+00 0.0000000000000000e+00 0.0000000000000000e+00  0.0000000000000000e+00 0.0000000000000000e+00 0.0000000000000000e+00  0.0000000000000000e+00 0.0000000000000000e+00 0.0000000000000000e+00  0.0000000000000000e+00 0.0000000000000000e+00 0.0000000000000000e+00  0.0000000000000000e+00 0.0000000000000000e+00 0.0000000000000000e+00  0.0000000000000000e+00 0.0000000000000000e+00 0.0000000000000000e+00  0.0000000000000000e+00 0.0000000000000000e+00 0.0000000000000000e+00  0.0000000000000000e+00 0.0000000000000000e+00 0.0000000000000000e+00  0.0000000000000000e+00 0.0000000000000000e+00 0.0000000000000000e+00  0.0000000000000000e+00 0.0000000000000000e+00 0.0000000000000000e+00  0.0000000000000000e+00 0.0000000000000000e+00 0.0000000000000000e+00  0.0000000000000000e+00 0.0000000000000000e+00 0.0000000000000000e+00  0.0000000000000000e+00 0.0000000000000000e+00 0.0000000000000000e+00  0.0000000000000000e+00 0.0000000000000000e+00 0.0000000000000000e+00  0.0000000000000000e+00 0.0000000000000000e+00 0.0000000000000000e+00  0.0000000000000000e+00 0.0000000000000000e+00 0.0000000000000000e+00  0.0000000000000000e+00 0.0000000000000000e+00 0.0000000000000000e+00  0.0000000000000000e+00 0.0000000000000000e+00 0.0000000000000000e+00  0.0000000000000000e+00 0.0000000000000000e+00 0.0000000000000000e+00  0.0000000000000000e+00 0.0000000000000000e+00 0.0000000000000000e+00  0.0000000000000000e+00 0.0000000000000000e+00 0.0000000000000000e+00  0.0000000000000000e+00 0.0000000000000000e+00 0.0000000000000000e+00  0.0000000000000000e+00 0.0000000000000000e+00 0.0000000000000000e+00  0.0000000000000000e+00 0.0000000000000000e+00 0.0000000000000000e+00  0.0000000000000000e+00 0.0000000000000000e+00 0.0000000000000000e+00  0.0000000000000000e+00 0.0000000000000000e+00 0.0000000000000000e+00  0.0000000000000000e+00 0.0000000000000000e+00 0.0000000000000000e+00  0.0000000000000000e+00 0.0000000000000000e+00 0.0000000000000000e+00  0.0000000000000000e+00 0.0000000000000000e+00 0.0000000000000000e+00  0.0000000000000000e+00 0.0000000000000000e+00 0.0000000000000000e+00  0.0000000000000000e+00 0.0000000000000000e+00 0.0000000000000000e+00  0.0000000000000000e+00 0.0000000000000000e+00 0.0000000000000000e+00  0.0000000000000000e+00 0.0000000000000000e+00 0.0000000000000000e+00  0.0000000000000000e+00 0.0000000000000000e+00 0.0000000000000000e+00  0.0000000000000000e+00 0.0000000000000000e+00 0.0000000000000000e+00  0.0000000000000000e+00 0.0000000000000000e+00 0.0000000000000000e+00  0.0000000000000000e+00 0.0000000000000000e+00 0.0000000000000000e+00  0.0000000000000000e+00 0.0000000000000000e+00 0.0000000000000000e+00  0.0000000000000000e+00 0.0000000000000000e+00 0.0000000000000000e+00  0.0000000000000000e+00 0.0000000000000000e+00 0.0000000000000000e+00  0.0000000000000000e+00 0.0000000000000000e+00 0.0000000000000000e+00  0.0000000000000000e+00 0.0000000000000000e+00 0.0000000000000000e+00  0.0000000000000000e+00 0.0000000000000000e+00 0.0000000000000000e+00  0.0000000000000000e+00 0.0000000000000000e+00 0.0000000000000000e+00  0.0000000000000000e+00 0.0000000000000000e+00 0.0000000000000000e+00  0.0000000000000000e+00 0.0000000000000000e+00 0.0000000000000000e+00  0.0000000000000000e+00 0.0000000000000000e+00 0.0000000000000000e+00  0.0000000000000000e+00 0.0000000000000000e+00 0.0000000000000000e+00  0.0000000000000000e+00 0.0000000000000000e+00 0.0000000000000000e+00  0.0000000000000000e+00 0.0000000000000000e+00 0.0000000000000000e+00  0.0000000000000000e+00 0.0000000000000000e+00 0.0000000000000000e+00  0.0000000000000000e+00 0.0000000000000000e+00 0.0000000000000000e+00  0.0000000000000000e+00 0.0000000000000000e+00 0.0000000000000000e+00  0.0000000000000000e+00 0.0000000000000000e+00 0.0000000000000000e+00  0.0000000000000000e+00 0.0000000000000000e+00 0.0000000000000000e+00  0.0000000000000000e+00 0.0000000000000000e+00 0.0000000000000000e+00  0.0000000000000000e+00 0.0000000000000000e+00 0.0000000000000000e+00  0.0000000000000000e+00 0.0000000000000000e+00 0.0000000000000000e+00  0.0000000000000000e+00 0.0000000000000000e+00 0.0000000000000000e+00  0.0000000000000000e+00 0.0000000000000000e+00 0.0000000000000000e+00  0.0000000000000000e+00 0.0000000000000000e+00 0.0000000000000000e+00  0.0000000000000000e+00 0.0000000000000000e+00 0.0000000000000000e+00  0.0000000000000000e+00 0.0000000000000000e+00 0.0000000000000000e+00  0.0000000000000000e+00 0.0000000000000000e+00 0.0000000000000000e+00  0.0000000000000000e+00 0.0000000000000000e+00 0.0000000000000000e+00  0.0000000000000000e+00 0.0000000000000000e+00 0.0000000000000000e+00  0.0000000000000000e+00 0.0000000000000000e+00 0.0000000000000000e+00  0.0000000000000000e+00 0.0000000000000000e+00 0.0000000000000000e+00  0.0000000000000000e+00 0.0000000000000000e+00 0.0000000000000000e+00  0.0000000000000000e+00 0.0000000000000000e+00 0.0000000000000000e+00  0.0000000000000000e+00 0.0000000000000000e+00 0.0000000000000000e+00  0.0000000000000000e+00 0.0000000000000000e+00 0.0000000000000000e+00  0.0000000000000000e+00 0.0000000000000000e+00 0.0000000000000000e+00  0.0000000000000000e+00 0.0000000000000000e+00 0.0000000000000000e+00  0.0000000000000000e+00 0.0000000000000000e+00 0.0000000000000000e+00  0.0000000000000000e+00 0.0000000000000000e+00 0.0000000000000000e+00  0.0000000000000000e+00 0.0000000000000000e+00 0.0000000000000000e+00  0.0000000000000000e+00 0.0000000000000000e+00 0.0000000000000000e+00  0.0000000000000000e+00 0.0000000000000000e+00 0.0000000000000000e+00  0.0000000000000000e+00 0.0000000000000000e+00 0.0000000000000000e+00  0.0000000000000000e+00 0.0000000000000000e+00 0.0000000000000000e+00  0.0000000000000000e+00 0.0000000000000000e+00 0.0000000000000000e+00  0.0000000000000000e+00 0.0000000000000000e+00 0.0000000000000000e+00  0.0000000000000000e+00 0.0000000000000000e+00 0.0000000000000000e+00  0.0000000000000000e+00 0.0000000000000000e+00 0.0000000000000000e+00  0.0000000000000000e+00 0.0000000000000000e+00 0.0000000000000000e+00  0.0000000000000000e+00 0.0000000000000000e+00 0.0000000000000000e+00  0.0000000000000000e+00 0.0000000000000000e+00 0.0000000000000000e+00  0.0000000000000000e+00 0.0000000000000000e+00 0.0000000000000000e+00  0.0000000000000000e+00 0.0000000000000000e+00 0.0000000000000000e+00  0.0000000000000000e+00 0.0000000000000000e+00 0.0000000000000000e+00  0.0000000000000000e+00 0.0000000000000000e+00 0.0000000000000000e+00  0.0000000000000000e+00 0.0000000000000000e+00 0.0000000000000000e+00  0.0000000000000000e+00 0.0000000000000000e+00 0.0000000000000000e+00  0.0000000000000000e+00 0.0000000000000000e+00 0.0000000000000000e+00  0.